<LesHouchesEvents version="1.0">
<!--
file generated with POWHEG-BOX version 1.0
Input file powheg.input contained:
numevts 1000    ! number of events to be generated
ih1   1           ! hadron 1 (1 for protons, -1 for antiprotons)
ih2   1           ! hadron 2 (1 for protons, -1 for antiprotons)
#ndns1 131         ! pdf set for hadron 1 (mlm numbering)
#ndns2 131         ! pdf set for hadron 2 (mlm numbering)
lhans1 21100
lhans2 21100
ebeam1 3500d0     ! energy of beam 1
ebeam2 3500d0     ! energy of beam 2
 
topdec 11         ! 11, 13 and 15 for e+,mu+,tau+, 1 for hadrons
tbardec 13        ! 11, 13 and 15 for e-,mu-,tau-, 1 for hadrons
#nospincorr 1     ! if 1 wash out spin correlations
 
#tmass 172         ! top mass (default 172)
#bmass 5          ! default: 4.75
 
 
use-old-grid    1 ! if 1 use old grid if file pwggrids.dat is present (<> 1 regenerate)
use-old-ubound  1 ! if 1 use norm of upper bounding function stored in pwgubound.dat, if present; <>
 
ncall1  200000  ! number of calls for initializing the integration grid
itmx1    3    ! number of iterations for initializing the integration grid
ncall2  200000  ! number of calls for computing the integral and finding upper bound
itmx2    5     ! number of iterations for computing the integral and finding upper bound
foldcsi   1    ! number of folds on csi integration
foldy     1    ! number of folds on  y  integration
foldphi   1    ! number of folds on phi integration
nubound 200000  ! number of bbarra calls to setup norm of upper bounding function
icsimax  1     ! <= 100, number of csi subdivision when computing the upper bounds
iymax    1     ! <= 100, number of y subdivision when computing the upper bounds
xupbound 2d0   ! increase upper bound for radiation generation
 
testplots 1
 
 
 
End of powheg.input content
PDF package: lha
 Random number generator initialized with:     54217137     218550587             0
-->
<init>
     2212     2212  3.50000E+03  3.50000E+03     -1     -1     -1     -1      3      1
  1.85366E+00  1.58959E-03  1.00000E+00  10001
</init>
<event>
     13  10001  1.00000E+00  2.02092E+01 -1.00000E+00  1.70390E-01
      21    -1     0     0   503   511  0.000000000E+00  0.000000000E+00  4.024239372E+02  4.024239372E+02  0.000000000E+00  0.00000E+00  9.000E+00
      21    -1     0     0   502   503  0.000000000E+00  0.000000000E+00 -1.077993919E+02  1.077993919E+02  0.000000000E+00  0.00000E+00  9.000E+00
       6     2     1     2   502     0  1.175440402E+01  7.925934305E+01  1.995016468E+02  2.753272899E+02  1.720000000E+02  0.00000E+00  9.000E+00
      -6     2     1     2     0   504 -1.697177595E+01 -5.973523936E+01  5.665417281E+01  1.914419894E+02  1.720000000E+02  0.00000E+00  9.000E+00
      24     2     3     3     0     0  3.938786833E+01  2.801502768E-01  1.593293855E+02  1.823880930E+02  7.954923454E+01  0.00000E+00  9.000E+00
     -24     2     4     4     0     0 -4.943031308E+01 -2.825296721E+00 -1.074981781E+01  9.732419799E+01  8.309694807E+01  0.00000E+00  9.000E+00
     -11     1     5     5     0     0 -2.273338537E+01 -2.647523658E+00  6.918734085E+01  7.287457942E+01  9.536743164E-07  0.00000E+00  9.000E+00
      12     1     5     5     0     0  6.212125370E+01  2.927673934E+00  9.014204469E+01  1.095135136E+02  0.000000000E+00  0.00000E+00  9.000E+00
      13     1     6     6     0     0  1.473725533E+01 -1.475082096E+01 -2.286295415E+01  3.094330439E+01  7.539457465E-07  0.00000E+00  9.000E+00
     -14     1     6     6     0     0 -6.416756841E+01  1.192552424E+01  1.211313634E+01  6.638089361E+01  1.379947293E-06  0.00000E+00  9.000E+00
       5     1     3     3   502     0 -2.763346432E+01  7.897919278E+01  4.017226127E+01  9.293919688E+01  4.750000000E+00  0.00000E+00  9.000E+00
      -5     1     4     4     0   504  3.245853713E+01 -5.690994264E+01  6.740399062E+01  9.411779139E+01  4.750000000E+00  0.00000E+00  9.000E+00
      21     1     1     2   504   511  5.217371937E+00 -1.952410369E+01  3.846872564E+01  4.345404983E+01  8.259061849E-07  0.00000E+00  9.000E+00
</event>
<event>
     13  10001  1.00000E+00  1.88171E+01 -1.00000E+00  1.73122E-01
      21    -1     0     0   512   503  0.000000000E+00  0.000000000E+00  7.086910323E+02  7.086910323E+02  0.000000000E+00  0.00000E+00  9.000E+00
      21    -1     0     0   503   504  0.000000000E+00  0.000000000E+00 -6.744171865E+01  6.744171865E+01  0.000000000E+00  0.00000E+00  9.000E+00
       6     2     1     2   502     0  2.472704779E+01  3.644267337E+01  1.120908852E+02  2.099710977E+02  1.720000000E+02  0.00000E+00  9.000E+00
      -6     2     1     2     0   504 -1.026120423E+01 -4.847693741E+01  4.395395567E+02  4.745885878E+02  1.720000000E+02  0.00000E+00  9.000E+00
      24     2     3     3     0     0 -3.583317301E+01 -2.334227577E+00  1.550459766E+01  8.946109054E+01  8.045762403E+01  0.00000E+00  9.000E+00
     -24     2     4     4     0     0  5.770620191E+01 -5.186055798E+01  2.683380546E+02  2.902966075E+02  7.903977204E+01  0.00000E+00  9.000E+00
     -11     1     5     5     0     0  2.412653917E+01 -7.406860503E+00 -5.307105609E+00  2.578985934E+01  9.443151663E-07  0.00000E+00  9.000E+00
      12     1     5     5     0     0 -5.995971218E+01  5.072632927E+00  2.081170327E+01  6.367123120E+01  2.466220959E-06  0.00000E+00  9.000E+00
      13     1     6     6     0     0  2.413156642E+01 -6.785504377E+01  1.528182447E+02  1.689380223E+02  1.907348633E-06  0.00000E+00  9.000E+00
     -14     1     6     6     0     0  3.357463548E+01  1.599448578E+01  1.155198099E+02  1.213585852E+02  2.697398305E-06  0.00000E+00  9.000E+00
       5     1     3     3   502     0  6.056022079E+01  3.877690095E+01  9.658628758E+01  1.205100072E+02  4.750000000E+00  0.00000E+00  9.000E+00
      -5     1     4     4     0   504 -6.796740614E+01  3.383620569E+00  1.712015021E+02  1.842919804E+02  4.750000000E+00  0.00000E+00  9.000E+00
      21     1     1     2   512   502 -1.446584355E+01  1.203426404E+01  8.961887164E+01  9.157306534E+01  9.536743164E-07  0.00000E+00  9.000E+00
</event>
<event>
     13  10001  1.00000E+00  3.34918E+00 -1.00000E+00  2.96771E-01
       2    -1     0     0   502     0  0.000000000E+00  0.000000000E+00  1.301594613E+03  1.301594613E+03  0.000000000E+00  0.00000E+00  9.000E+00
      -2    -1     0     0     0   511  0.000000000E+00  0.000000000E+00 -7.939971169E+01  7.939971169E+01  0.000000000E+00  0.00000E+00  9.000E+00
       6     2     1     2   502     0  4.896997843E+00 -1.134064754E+02  1.289814315E+02  2.431156492E+02  1.720000000E+02  0.00000E+00  9.000E+00
      -6     2     1     2     0   512 -3.924363338E+00  1.102016417E+02  1.105973131E+03  1.124686787E+03  1.720000000E+02  0.00000E+00  9.000E+00
      24     2     3     3     0     0 -4.251705921E+01 -8.873543471E+01  3.725232405E+01  1.368445586E+02  8.750439923E+01  0.00000E+00  9.000E+00
     -24     2     4     4     0     0 -1.184522170E+01 -1.051250655E+01  4.169183145E+02  4.250770757E+02  8.135611370E+01  0.00000E+00  9.000E+00
     -11     1     5     5     0     0 -1.710908035E+01 -1.996635163E+01  5.539643466E+01  6.131998696E+01  9.536743164E-07  0.00000E+00  9.000E+00
      12     1     5     5     0     0 -2.540797886E+01 -6.876908307E+01 -1.814411061E+01  7.552457167E+01  5.447225408E-06  0.00000E+00  9.000E+00
      13     1     6     6     0     0  3.090098756E+01  1.215761288E-01  8.896718706E+01  9.418092263E+01  1.907348633E-06  0.00000E+00  9.000E+00
     -14     1     6     6     0     0 -4.274620926E+01 -1.063408268E+01  3.279511274E+02  3.308961530E+02  7.629394531E-06  0.00000E+00  9.000E+00
       5     1     3     3   502     0  4.741405705E+01 -2.467104069E+01  9.172910741E+01  1.062710906E+02  4.750000000E+00  0.00000E+00  9.000E+00
      -5     1     4     4     0   512  7.920858362E+00  1.207141483E+02  6.890548161E+02  6.996097109E+02  4.750000000E+00  0.00000E+00  9.000E+00
      21     1     1     2   512   511 -9.726345054E-01  3.204833660E+00 -1.275966095E+01  1.319188858E+01  4.460403188E-07  0.00000E+00  9.000E+00
</event>
<event>
     13  10001  1.00000E+00  1.19800E+02 -1.00000E+00  1.22653E-01
      21    -1     0     0   502   503  0.000000000E+00  0.000000000E+00  7.353714629E+02  7.353714629E+02  0.000000000E+00  0.00000E+00  9.000E+00
      21    -1     0     0   513   504  0.000000000E+00  0.000000000E+00 -1.062793671E+02  1.062793671E+02  0.000000000E+00  0.00000E+00  9.000E+00
       6     2     1     2   502     0  4.403700503E+01 -5.177633433E+01  3.606882430E+02  4.053394322E+02  1.720000000E+02  0.00000E+00  9.000E+00
      -6     2     1     2     0   504 -1.414231764E+02 -1.799447125E+01  1.604801758E+02  2.750676329E+02  1.720000000E+02  0.00000E+00  9.000E+00
      24     2     3     3     0     0  6.892818408E+01 -8.736115783E+01  3.118790850E+02  3.398356394E+02  7.639785137E+01  0.00000E+00  9.000E+00
     -24     2     4     4     0     0 -1.506113891E+02 -2.071525561E+01  7.178923238E+01  1.857341461E+02  7.893393928E+01  0.00000E+00  9.000E+00
     -11     1     5     5     0     0 -9.004097810E+00 -4.492268339E+01  9.372020432E+01  1.043196911E+02  2.336015456E-06  0.00000E+00  9.000E+00
      12     1     5     5     0     0  7.793228189E+01 -4.243847444E+01  2.181588807E+02  2.355159483E+02  0.000000000E+00  0.00000E+00  9.000E+00
      13     1     6     6     0     0 -2.574254788E+01  2.592249525E+01  2.581922644E+01  4.473574617E+01  0.000000000E+00  0.00000E+00  9.000E+00
     -14     1     6     6     0     0 -1.248688413E+02 -4.663775086E+01  4.597000594E+01  1.409983999E+02  2.132480600E-06  0.00000E+00  9.000E+00
       5     1     3     3   502     0 -2.489117905E+01  3.558482350E+01  4.880915805E+01  6.550379277E+01  4.750000000E+00  0.00000E+00  9.000E+00
      -5     1     4     4     0   504  9.188212728E+00  2.720784358E+00  8.869094342E+01  8.933348680E+01  4.750000000E+00  0.00000E+00  9.000E+00
      21     1     1     2   513   503  9.738617139E+01  6.977080558E+01  1.079236769E+02  1.612437649E+02  2.697398305E-06  0.00000E+00  9.000E+00
</event>
<event>
     13  10001  1.00000E+00  1.05671E+01 -1.00000E+00  1.99064E-01
      21    -1     0     0   502   503  0.000000000E+00  0.000000000E+00  2.861457228E+02  2.861457228E+02  0.000000000E+00  0.00000E+00  9.000E+00
      21    -1     0     0   503   511  0.000000000E+00  0.000000000E+00 -1.827805882E+02  1.827805882E+02  0.000000000E+00  0.00000E+00  9.000E+00
       6     2     1     2   502     0  4.467579505E+01  6.374868565E+00  1.875349278E+02  2.584374485E+02  1.720000000E+02  0.00000E+00  9.000E+00
      -6     2     1     2     0   504 -5.433846528E+01 -2.097415177E+00 -8.586855627E+01  1.997860779E+02  1.720000000E+02  0.00000E+00  9.000E+00
      24     2     3     3     0     0  7.771450289E+01  1.362471385E-01  6.164085727E+01  1.280443654E+02  8.097037545E+01  0.00000E+00  9.000E+00
     -24     2     4     4     0     0  1.554948385E+01 -4.349849888E+01 -2.192118776E+01  9.629596432E+01  8.159943885E+01  0.00000E+00  9.000E+00
     -11     1     5     5     0     0 -1.400510065E+01 -1.317898942E+01  1.435343780E+01  2.399687028E+01  7.539457465E-07  0.00000E+00  9.000E+00
      12     1     5     5     0     0  9.171960354E+01  1.331523656E+01  4.728741948E+01  1.040474951E+02  1.784161275E-06  0.00000E+00  9.000E+00
      13     1     6     6     0     0 -5.693893834E+00  2.216297265E+01 -1.401170203E+01  2.683180161E+01  6.078504936E-07  0.00000E+00  9.000E+00
     -14     1     6     6     0     0  2.124337768E+01 -6.566147152E+01 -7.909485728E+00  6.946416272E+01  1.327458468E-06  0.00000E+00  9.000E+00
       5     1     3     3   502     0 -3.303870784E+01  6.238621427E+00  1.258940705E+02  1.303930831E+02  4.750000000E+00  0.00000E+00  9.000E+00
      -5     1     4     4     0   504 -6.988794913E+01  4.140108370E+01 -6.394736851E+01  1.034901136E+02  4.750000000E+00  0.00000E+00  9.000E+00
      21     1     1     2   504   511  9.662670233E+00 -4.277453388E+00  1.698763071E+00  1.070278466E+01  1.825012075E-07  0.00000E+00  9.000E+00
</event>
<event>
     13  10001  1.00000E+00  5.96417E+01 -1.00000E+00  1.37691E-01
      21    -1     0     0   502   503  0.000000000E+00  0.000000000E+00  6.973162073E+02  6.973162073E+02  0.000000000E+00  0.00000E+00  9.000E+00
      21    -1     0     0   512   504  0.000000000E+00  0.000000000E+00 -5.184974435E+02  5.184974435E+02  0.000000000E+00  0.00000E+00  9.000E+00
       6     2     1     2   502     0 -8.006610398E+01 -3.330525344E+01  2.782126079E+02  3.383874644E+02  1.720000000E+02  0.00000E+00  9.000E+00
      -6     2     1     2     0   504  1.373717335E+02  1.677652009E+01  3.555921661E+02  4.185477672E+02  1.720000000E+02  0.00000E+00  9.000E+00
      24     2     3     3     0     0 -6.366018208E+01 -6.587432308E+01  2.742997866E+02  3.014040730E+02  8.492347792E+01  0.00000E+00  9.000E+00
     -24     2     4     4     0     0  2.672015017E+01 -2.382850281E+00  2.508212438E+02  2.648911271E+02  8.084781066E+01  0.00000E+00  9.000E+00
     -11     1     5     5     0     0 -6.627304016E+01 -3.821690114E+01  1.054148744E+02  1.302495418E+02  1.907348633E-06  0.00000E+00  9.000E+00
      12     1     5     5     0     0  2.612858082E+00 -2.765742195E+01  1.688849121E+02  1.711545312E+02  2.697398305E-06  0.00000E+00  9.000E+00
      13     1     6     6     0     0  4.029412946E+00  4.278660523E+00 -5.159278620E+00  7.820566504E+00  7.468440584E-07  0.00000E+00  9.000E+00
     -14     1     6     6     0     0  2.269073723E+01 -6.661510804E+00  2.559805224E+02  2.570705606E+02  2.697398305E-06  0.00000E+00  9.000E+00
       5     1     3     3   502     0 -1.640592190E+01  3.256906965E+01  3.912821321E+00  3.698339143E+01  4.750000000E+00  0.00000E+00  9.000E+00
      -5     1     4     4     0   504  1.106515833E+02  1.915937037E+01  1.047709223E+02  1.536566401E+02  4.750000000E+00  0.00000E+00  9.000E+00
      21     1     1     2   512   503 -5.730562951E+01  1.652873334E+01 -4.549860102E+02  4.588784193E+02  7.629394531E-06  0.00000E+00  9.000E+00
</event>
<event>
     13  10001  1.00000E+00  2.23101E+02 -1.00000E+00  1.11816E-01
      -2    -1     0     0     0   503  0.000000000E+00  0.000000000E+00  5.599209907E+02  5.599209907E+02  0.000000000E+00  0.00000E+00  9.000E+00
      21    -1     0     0   503   504  0.000000000E+00  0.000000000E+00 -4.942147518E+02  4.942147518E+02  0.000000000E+00  0.00000E+00  9.000E+00
       6     2     1     2   502     0  1.247578070E+02 -2.651258503E+01 -2.495025080E+02  3.287900988E+02  1.720000000E+02  0.00000E+00  9.000E+00
      -6     2     1     2     0   504 -3.003654207E+02 -1.110953506E+02  3.215400107E+01  3.649375874E+02  1.720000000E+02  0.00000E+00  9.000E+00
      24     2     3     3     0     0  7.727355803E+01 -5.676598045E+01 -7.602261471E+01  1.463404956E+02  8.026533123E+01  0.00000E+00  9.000E+00
     -24     2     4     4     0     0 -1.961189276E+02 -1.048444030E+01 -2.760572620E+01  2.081457697E+02  6.316666887E+01  0.00000E+00  9.000E+00
     -11     1     5     5     0     0  2.336764656E+01  1.827097769E+01 -5.641286081E+00  3.019436438E+01  5.092623082E-07  0.00000E+00  9.000E+00
      12     1     5     5     0     0  5.390591147E+01 -7.503695814E+01 -7.038132863E+01  1.161461312E+02  1.651812370E-06  0.00000E+00  9.000E+00
      13     1     6     6     0     0 -1.472389382E+02 -3.448436640E+01 -1.308184517E+01  1.517880467E+02  2.500555153E-06  0.00000E+00  9.000E+00
     -14     1     6     6     0     0 -4.887998938E+01  2.399992610E+01 -1.452388103E+01  5.635772294E+01  1.143415337E-06  0.00000E+00  9.000E+00
       5     1     3     3   502     0  4.748424894E+01  3.025339542E+01 -1.734798933E+02  1.824496032E+02  4.750000000E+00  0.00000E+00  9.000E+00
      -5     1     4     4     0   504 -1.042464931E+02 -1.006109103E+02  5.975972727E+01  1.567918177E+02  4.750000000E+00  0.00000E+00  9.000E+00
      -2     1     1     2     0   502  1.756076138E+02  1.376079356E+02  2.830547458E+02  3.604080564E+02  5.394796609E-06  0.00000E+00  9.000E+00
</event>
<event>
     13  10001  1.00000E+00  4.93621E+00 -1.00000E+00  2.53528E-01
       4    -1     0     0   502     0  0.000000000E+00  0.000000000E+00  7.591623191E+01  7.591623191E+01  0.000000000E+00  0.00000E+00  9.000E+00
      -4    -1     0     0     0   511  0.000000000E+00  0.000000000E+00 -7.162492861E+02  7.162492861E+02  0.000000000E+00  0.00000E+00  9.000E+00
       6     2     1     2   502     0 -4.790043641E+01 -2.525589359E+01 -8.800969916E+01  2.006539786E+02  1.720000000E+02  0.00000E+00  9.000E+00
      -6     2     1     2     0   512  5.283183601E+01  2.547377914E+01 -4.026765111E+02  4.417833054E+02  1.720000000E+02  0.00000E+00  9.000E+00
      24     2     3     3     0     0  1.343049713E+01  3.681367459E+01 -6.342180009E+01  1.098726920E+02  8.070971961E+01  0.00000E+00  9.000E+00
     -24     2     4     4     0     0 -2.405334665E+01  4.858899441E+01 -2.545675915E+02  2.732470806E+02  8.318566322E+01  0.00000E+00  9.000E+00
     -11     1     5     5     0     0 -5.321851558E+00  5.965297057E+01 -3.832820849E+01  7.110450455E+01  1.581489940E-06  0.00000E+00  9.000E+00
      12     1     5     5     0     0  1.875234869E+01 -2.283929597E+01 -2.509359159E+01  3.876818749E+01  4.768371582E-07  0.00000E+00  9.000E+00
      13     1     6     6     0     0 -2.216042187E+01  4.161233839E+01 -5.063001293E+01  6.918142245E+01  1.168007728E-06  0.00000E+00  9.000E+00
     -14     1     6     6     0     0 -1.892924781E+00  6.976656025E+00 -2.039375785E+02  2.040656581E+02  2.697398305E-06  0.00000E+00  9.000E+00
       5     1     3     3   502     0 -6.133093354E+01 -6.206956818E+01 -2.458789907E+01  9.078128653E+01  4.750000000E+00  0.00000E+00  9.000E+00
      -5     1     4     4     0   512  7.688518266E+01 -2.311521528E+01 -1.481089196E+02  1.685362248E+02  4.750000000E+00  0.00000E+00  9.000E+00
      21     1     1     2   512   511 -4.931399600E+00 -2.178855469E-01 -1.496468440E+02  1.497282341E+02  1.907348633E-06  0.00000E+00  9.000E+00
</event>
<event>
     13  10001  1.00000E+00  9.11587E+00 -1.00000E+00  2.07066E-01
      21    -1     0     0   513   504  0.000000000E+00  0.000000000E+00  4.672238040E+01  4.672238040E+01  0.000000000E+00  0.00000E+00  9.000E+00
      21    -1     0     0   502   503  0.000000000E+00  0.000000000E+00 -8.987747102E+02  8.987747102E+02  0.000000000E+00  0.00000E+00  9.000E+00
       6     2     1     2   502     0  1.314246483E+01  2.517486710E+01 -3.916412113E+02  4.286879246E+02  1.720000000E+02  0.00000E+00  9.000E+00
      -6     2     1     2     0   504 -4.268598030E+00 -2.308836546E+01 -4.715074306E+02  5.024485552E+02  1.720000000E+02  0.00000E+00  9.000E+00
      24     2     3     3     0     0 -5.209087343E+01  4.263533239E+01 -2.528496531E+02  2.742666975E+02  8.220732083E+01  0.00000E+00  9.000E+00
     -24     2     4     4     0     0  5.481529728E+01 -2.436327686E+01 -1.704125561E+02  1.955720035E+02  7.489781829E+01  0.00000E+00  9.000E+00
     -11     1     5     5     0     0 -1.764291539E+01 -1.501093214E+01 -1.618490847E+01  2.825865901E+01  7.539457465E-07  0.00000E+00  9.000E+00
      12     1     5     5     0     0 -3.444795804E+01  5.764626453E+01 -2.366647447E+02  2.460080385E+02  3.814697266E-06  0.00000E+00  9.000E+00
      13     1     6     6     0     0  6.948254923E+01 -1.246200188E+01 -1.577719446E+02  1.728441861E+02  3.814697266E-06  0.00000E+00  9.000E+00
     -14     1     6     6     0     0 -1.466725196E+01 -1.190127497E+01 -1.264061148E+01  2.272781742E+01  1.359195024E-06  0.00000E+00  9.000E+00
       5     1     3     3   502     0  6.523333825E+01 -1.746046528E+01 -1.387915582E+02  1.544212271E+02  4.750000000E+00  0.00000E+00  9.000E+00
      -5     1     4     4     0   504 -5.908389531E+01  1.274911396E+00 -3.010948744E+02  3.068765517E+02  4.750000000E+00  0.00000E+00  9.000E+00
      21     1     1     2   513   503 -8.873866796E+00 -2.086501641E+00  1.109631206E+01  1.436061080E+01  3.953724850E-07  0.00000E+00  9.000E+00
</event>
<event>
     13  10001  1.00000E+00  7.58613E+01 -1.00000E+00  1.32095E-01
      21    -1     0     0   511   512  0.000000000E+00  0.000000000E+00  2.066343658E+02  2.066343658E+02  0.000000000E+00  0.00000E+00  9.000E+00
       2    -1     0     0   502     0  0.000000000E+00  0.000000000E+00 -8.909102704E+02  8.909102704E+02  0.000000000E+00  0.00000E+00  9.000E+00
       6     2     1     2   502     0 -5.934976159E+01  2.042018717E+02  4.333389185E+01  2.769162776E+02  1.720000000E+02  0.00000E+00  9.000E+00
      -6     2     1     2     0   512  1.185977616E+02 -1.568246158E+02 -3.572157413E+02  4.425454496E+02  1.720000000E+02  0.00000E+00  9.000E+00
      24     2     3     3     0     0 -9.502580937E+00  2.043912032E+02  5.030520847E+01  2.263599821E+02  8.271737720E+01  0.00000E+00  9.000E+00
     -24     2     4     4     0     0  4.574310259E+01 -1.629454095E+02 -2.703434780E+02  3.289029484E+02  8.029891313E+01  0.00000E+00  9.000E+00
     -11     1     5     5     0     0  1.472808727E+01  5.892347015E+00 -8.398623259E+00  1.794918329E+01  9.830249847E-07  0.00000E+00  9.000E+00
      12     1     5     5     0     0 -2.423066821E+01  1.984988562E+02  5.870383173E+01  2.084107988E+02  3.303624740E-06  0.00000E+00  9.000E+00
      13     1     6     6     0     0 -3.266568571E+00 -2.085753586E+01 -9.790029433E+01  1.001507609E+02  1.907348633E-06  0.00000E+00  9.000E+00
     -14     1     6     6     0     0  4.900967116E+01 -1.420878736E+02 -1.724431837E+02  2.287521876E+02  1.907348633E-06  0.00000E+00  9.000E+00
       5     1     3     3   502     0 -4.984718065E+01 -1.893314456E-01 -6.971316616E+00  5.055629556E+01  4.750000000E+00  0.00000E+00  9.000E+00
      -5     1     4     4     0   512  7.285465906E+01  6.120793733E+00 -8.687226322E+01  1.136425012E+02  4.750000000E+00  0.00000E+00  9.000E+00
       2     1     1     2   511     0 -5.924800006E+01 -4.737725599E+01 -3.703940552E+02  3.780829089E+02  0.000000000E+00  0.00000E+00  9.000E+00
</event>
<event>
     13  10001  1.00000E+00  2.53349E+01 -1.00000E+00  1.62298E-01
      21    -1     0     0   502   503  0.000000000E+00  0.000000000E+00  5.139332779E+02  5.139332779E+02  0.000000000E+00  0.00000E+00  9.000E+00
       1    -1     0     0   503     0  0.000000000E+00  0.000000000E+00 -8.232150401E+02  8.232150401E+02  0.000000000E+00  0.00000E+00  9.000E+00
       6     2     1     2   502     0 -3.362942244E+01 -1.139302633E+01  4.271284790E+02  4.618262408E+02  1.720000000E+02  0.00000E+00  9.000E+00
      -6     2     1     2     0   504  4.889391956E+01 -8.827026886E+00 -4.653418017E+01  1.849809766E+02  1.720000000E+02  0.00000E+00  9.000E+00
      24     2     3     3     0     0 -3.002145199E+01  1.393126662E+01  1.056417863E+02  1.392885014E+02  8.453243065E+01  0.00000E+00  9.000E+00
     -24     2     4     4     0     0 -7.640925129E+00 -3.908129775E+01 -7.323090167E+01  1.153621070E+02  7.974910151E+01  0.00000E+00  9.000E+00
     -11     1     5     5     0     0 -4.398937988E+01  4.110067096E+01  6.842082288E+01  9.113583104E+01  9.536743164E-07  0.00000E+00  9.000E+00
      12     1     5     5     0     0  1.396792789E+01 -2.716940434E+01  3.722096342E+01  4.815267033E+01  0.000000000E+00  0.00000E+00  9.000E+00
      13     1     6     6     0     0  9.680838301E+00  1.109503621E+01  9.167790976E+00  1.734551383E+01  6.419616708E-07  0.00000E+00  9.000E+00
     -14     1     6     6     0     0 -1.732176343E+01 -5.017633396E+01 -8.239869265E+01  9.801659312E+01  1.348699152E-06  0.00000E+00  9.000E+00
       5     1     3     3   502     0 -3.607970457E+00 -2.532429295E+01  3.214866927E+02  3.225377394E+02  4.750000000E+00  0.00000E+00  9.000E+00
      -5     1     4     4     0   504  5.653484469E+01  3.025427086E+01  2.669672150E+01  6.961886963E+01  4.750000000E+00  0.00000E+00  9.000E+00
       1     1     1     2   504     0 -1.526449711E+01  2.022005322E+01 -6.898760611E+02  6.903411005E+02  7.629394531E-06  0.00000E+00  9.000E+00
</event>
<event>
     13  10001  1.00000E+00  3.07088E+01 -1.00000E+00  1.56010E-01
      -3    -1     0     0     0   504  0.000000000E+00  0.000000000E+00  1.978739940E+02  1.978739940E+02  0.000000000E+00  0.00000E+00  9.000E+00
      21    -1     0     0   502   503  0.000000000E+00  0.000000000E+00 -2.307723361E+02  2.307723361E+02  0.000000000E+00  0.00000E+00  9.000E+00
       6     2     1     2   502     0  5.207529020E+01 -1.288988745E+01 -6.015872760E+01  1.899501449E+02  1.720000000E+02  0.00000E+00  9.000E+00
      -6     2     1     2     0   504 -5.824858365E+01  4.297181522E+01 -1.414503263E+01  1.871458157E+02  1.720000000E+02  0.00000E+00  9.000E+00
      24     2     3     3     0     0  8.186270944E+01 -1.662377037E+01 -9.064552736E+01  1.469008745E+02  7.990871261E+01  0.00000E+00  9.000E+00
     -24     2     4     4     0     0 -8.289849404E+01 -1.685899847E+01 -2.971744833E+01  1.204194568E+02  8.038241532E+01  0.00000E+00  9.000E+00
     -11     1     5     5     0     0 -6.454025235E+00 -2.193101675E+01 -3.681562084E+01  4.333605745E+01  4.768371582E-07  0.00000E+00  9.000E+00
      12     1     5     5     0     0  8.831673467E+01  5.307246386E+00 -5.382990652E+01  1.035648170E+02  2.023048729E-06  0.00000E+00  9.000E+00
      13     1     6     6     0     0 -5.245532964E+01  2.996910920E+01 -2.058675268E+01  6.382416079E+01  1.066240300E-06  0.00000E+00  9.000E+00
     -14     1     6     6     0     0 -3.044316440E+01 -4.682810766E+01 -9.130695649E+00  5.659529600E+01  1.143415337E-06  0.00000E+00  9.000E+00
       5     1     3     3   502     0 -2.978741924E+01  3.733882919E+00  3.048679976E+01  4.304927045E+01  4.750000000E+00  0.00000E+00  9.000E+00
      -5     1     4     4     0   504  2.464991039E+01  5.983081369E+01  1.557241570E+01  6.672635896E+01  4.750000000E+00  0.00000E+00  9.000E+00
      -3     1     1     2     0   503  6.173293455E+00 -3.008192778E+01  4.140541820E+01  5.155036942E+01  4.768371582E-07  0.00000E+00  9.000E+00
</event>
<event>
     13  10001  1.00000E+00  1.88595E+01 -1.00000E+00  1.73034E-01
      21    -1     0     0   503   504  0.000000000E+00  0.000000000E+00  7.376716508E+02  7.376716508E+02  0.000000000E+00  0.00000E+00  9.000E+00
      21    -1     0     0   511   503  0.000000000E+00  0.000000000E+00 -1.080204920E+02  1.080204920E+02  0.000000000E+00  0.00000E+00  9.000E+00
       6     2     1     2   502     0 -1.178639216E+02 -2.345588356E+01  5.790000760E+02  6.158467103E+02  1.720000000E+02  0.00000E+00  9.000E+00
      -6     2     1     2     0   504  1.048281375E+02  3.708479887E+01  5.066419414E+01  2.109859742E+02  1.720000000E+02  0.00000E+00  9.000E+00
      24     2     3     3     0     0 -1.088047005E+02  3.911803964E+01  4.592812113E+02  4.803744458E+02  8.032243335E+01  0.00000E+00  9.000E+00
     -24     2     4     4     0     0  1.083949374E+02  8.299128422E+01  3.572143701E+01  1.623446753E+02  8.026678537E+01  0.00000E+00  9.000E+00
     -11     1     5     5     0     0  1.040768777E+01  1.112393386E+01  2.612874906E+01  3.024522105E+01  9.536743164E-07  0.00000E+00  9.000E+00
      12     1     5     5     0     0 -1.192123883E+02  2.799410579E+01  4.331524622E+02  4.501292248E+02  5.394796609E-06  0.00000E+00  9.000E+00
      13     1     6     6     0     0  5.778588726E+01  7.673208448E+01 -6.304666867E+00  9.626406588E+01  1.072883606E-06  0.00000E+00  9.000E+00
     -14     1     6     6     0     0  5.060905018E+01  6.259199740E+00  4.202610388E+01  6.608060947E+01  1.348699152E-06  0.00000E+00  9.000E+00
       5     1     3     3   502     0 -9.059221133E+00 -6.257392320E+01  1.197188648E+02  1.354722644E+02  4.750000000E+00  0.00000E+00  9.000E+00
      -5     1     4     4     0   504 -3.566799919E+00 -4.590648535E+01  1.494275713E+01  4.864129881E+01  4.750000000E+00  0.00000E+00  9.000E+00
      21     1     1     2   511   502  1.303578411E+01 -1.362891531E+01 -1.311139593E-02  1.885945842E+01  4.598862009E-07  0.00000E+00  9.000E+00
</event>
<event>
     13  10001  1.00000E+00  1.58115E+01 -1.00000E+00  1.80178E-01
      21    -1     0     0   512   503  0.000000000E+00  0.000000000E+00  6.471977961E+02  6.471977961E+02  0.000000000E+00  0.00000E+00  9.000E+00
      21    -1     0     0   503   504  0.000000000E+00  0.000000000E+00 -1.284486935E+02  1.284486935E+02  0.000000000E+00  0.00000E+00  9.000E+00
       6     2     1     2   502     0  1.291846931E+02 -1.667678488E+01  4.168264538E+02  4.693560405E+02  1.720000000E+02  0.00000E+00  9.000E+00
      -6     2     1     2     0   504 -1.349521841E+02  3.139887984E+01  1.878638003E+01  2.216639568E+02  1.720000000E+02  0.00000E+00  9.000E+00
      24     2     3     3     0     0  1.485741571E+02 -5.066930494E+01  3.471590535E+02  3.893088550E+02  8.000198451E+01  0.00000E+00  9.000E+00
     -24     2     4     4     0     0 -3.282022474E+01 -2.047881735E+01  5.142144436E+01  1.024589128E+02  7.973151667E+01  0.00000E+00  9.000E+00
     -11     1     5     5     0     0  6.783456387E+01  2.898667566E+00  7.892558816E+01  1.041113769E+02  3.303624740E-06  0.00000E+00  9.000E+00
      12     1     5     5     0     0  8.073959322E+01 -5.356797250E+01  2.682334653E+02  2.851974781E+02  3.814697266E-06  0.00000E+00  9.000E+00
      13     1     6     6     0     0  2.070141519E+01 -2.765629381E+01  2.211655535E+01  4.101903459E+01  6.307962682E-07  0.00000E+00  9.000E+00
     -14     1     6     6     0     0 -5.352163993E+01  7.177476455E+00  2.930488901E+01  6.143987816E+01  1.651812370E-06  0.00000E+00  9.000E+00
       5     1     3     3   502     0 -1.938946394E+01  3.399252006E+01  6.966740033E+01  8.004718547E+01  4.750000000E+00  0.00000E+00  9.000E+00
      -5     1     4     4     0   504 -1.021319594E+02  5.187769719E+01 -3.263506433E+01  1.192050440E+02  4.750000000E+00  0.00000E+00  9.000E+00
      21     1     1     2   512   502  5.767490977E+00 -1.472209496E+01  8.313626873E+01  8.462649237E+01  1.348699152E-06  0.00000E+00  9.000E+00
</event>
<event>
     13  10001  1.00000E+00  3.16135E+01 -1.00000E+00  1.55104E-01
      21    -1     0     0   502   503  0.000000000E+00  0.000000000E+00  3.938389620E+02  3.938389620E+02  0.000000000E+00  0.00000E+00  9.000E+00
      21    -1     0     0   511   504  0.000000000E+00  0.000000000E+00 -1.096262218E+02  1.096262218E+02  0.000000000E+00  0.00000E+00  9.000E+00
       6     2     1     2   502     0 -4.477215799E+01 -5.278928181E+01  1.217206757E+02  2.217908413E+02  1.720000000E+02  0.00000E+00  9.000E+00
      -6     2     1     2     0   504  7.488795841E+01  4.317414969E+01  1.593645623E+02  2.499065370E+02  1.720000000E+02  0.00000E+00  9.000E+00
      24     2     3     3     0     0 -7.669528790E+01  4.874634809E+00  1.081696698E+02  1.543341459E+02  7.881891818E+01  0.00000E+00  9.000E+00
     -24     2     4     4     0     0 -9.417993714E+00 -2.369022698E+01  7.674668331E+01  1.141618691E+02  8.057886509E+01  0.00000E+00  9.000E+00
     -11     1     5     5     0     0 -5.497717902E+01 -3.299450881E+01  4.847481883E+01  8.037994703E+01  1.651812370E-06  0.00000E+00  9.000E+00
      12     1     5     5     0     0 -2.171810888E+01  3.786914361E+01  5.969485099E+01  7.395419884E+01  0.000000000E+00  0.00000E+00  9.000E+00
      13     1     6     6     0     0  1.404762587E+01 -1.120298471E+01  8.456645227E+01  8.645419313E+01  9.536743164E-07  0.00000E+00  9.000E+00
     -14     1     6     6     0     0 -2.346561958E+01 -1.248724226E+01 -7.819768967E+00  2.770767598E+01  7.817075878E-07  0.00000E+00  9.000E+00
       5     1     3     3   502     0  3.192312991E+01 -5.766391661E+01  1.355100590E+01  6.745669547E+01  4.750000000E+00  0.00000E+00  9.000E+00
      -5     1     4     4     0   504  8.430595212E+01  6.686437667E+01  8.261787896E+01  1.357446679E+02  4.750000000E+00  0.00000E+00  9.000E+00
      21     1     1     2   511   503 -3.011580042E+01  9.615132115E+00  3.127502202E+00  3.176780557E+01  2.920019320E-07  0.00000E+00  9.000E+00
</event>
<event>
     13  10001  1.00000E+00  1.16429E+01 -1.00000E+00  1.94154E-01
      21    -1     0     0   502   503  0.000000000E+00  0.000000000E+00  2.768175256E+02  2.768175256E+02  0.000000000E+00  0.00000E+00  9.000E+00
      21    -1     0     0   512   504  0.000000000E+00  0.000000000E+00 -1.448557297E+02  1.448557297E+02  0.000000000E+00  0.00000E+00  9.000E+00
       6     2     1     2   502     0  7.178794394E+01  2.775478976E+01  1.206968413E+02  2.237757019E+02  1.720000000E+02  0.00000E+00  9.000E+00
      -6     2     1     2     0   504 -6.015878109E+01 -2.719001247E+01  1.681344656E+01  1.850001830E+02  1.720000000E+02  0.00000E+00  9.000E+00
      24     2     3     3     0     0  1.075087699E+02 -1.138456155E+01  9.660204342E+01  1.653720375E+02  7.955006055E+01  0.00000E+00  9.000E+00
     -24     2     4     4     0     0 -1.182104658E+01 -6.965374601E+01 -2.171902160E+01  1.098535341E+02  8.126931505E+01  0.00000E+00  9.000E+00
     -11     1     5     5     0     0 -4.705467147E+00  2.595095848E+00  3.729820065E+01  3.768330818E+01  6.743495762E-07  0.00000E+00  9.000E+00
      12     1     5     5     0     0  1.122142371E+02 -1.397965740E+01  5.930384277E+01  1.276887293E+02  3.504023184E-06  0.00000E+00  9.000E+00
      13     1     6     6     0     0  1.804446470E+01 -1.656792944E+01  2.353630294E+01  3.397140780E+01  7.539457465E-07  0.00000E+00  9.000E+00
     -14     1     6     6     0     0 -2.986551128E+01 -5.308581657E+01 -4.525532454E+01  7.588212625E+01  2.236564522E-06  0.00000E+00  9.000E+00
       5     1     3     3   502     0 -3.572082599E+01  3.913935131E+01  2.409479791E+01  5.840366441E+01  4.750000000E+00  0.00000E+00  9.000E+00
      -5     1     4     4     0   504 -4.833773451E+01  4.246373354E+01  3.853246816E+01  7.514664894E+01  4.750000000E+00  0.00000E+00  9.000E+00
      21     1     1     2   512   503 -1.162916285E+01 -5.647772895E-01 -5.548491999E+00  1.289737048E+01  1.032382731E-07  0.00000E+00  9.000E+00
</event>
<event>
     13  10001  1.00000E+00  4.70154E+01 -1.00000E+00  1.43726E-01
      21    -1     0     0   503   504  0.000000000E+00  0.000000000E+00  1.638570053E+02  1.638570053E+02  0.000000000E+00  0.00000E+00  9.000E+00
      21    -1     0     0   502   511  0.000000000E+00  0.000000000E+00 -4.599870575E+02  4.599870575E+02  0.000000000E+00  0.00000E+00  9.000E+00
       6     2     1     2   502     0 -3.839097183E+01 -1.916008370E+02 -1.601163196E+02  3.056239246E+02  1.720000000E+02  0.00000E+00  9.000E+00
      -6     2     1     2     0   504  8.945561562E-02  1.643347471E+02 -9.616202367E+01  2.565873183E+02  1.720000000E+02  0.00000E+00  9.000E+00
      24     2     3     3     0     0  3.314541177E+01 -8.503223469E+01 -3.646649372E+01  1.273371805E+02  8.096822282E+01  0.00000E+00  9.000E+00
     -24     2     4     4     0     0  4.911935748E+01  5.635411390E+01 -7.527143912E+01  1.360770389E+02  8.522132084E+01  0.00000E+00  9.000E+00
     -11     1     5     5     0     0 -1.256185949E+01 -7.127844681E+01 -3.280744015E+01  7.946537248E+01  2.236564522E-06  0.00000E+00  9.000E+00
      12     1     5     5     0     0  4.570727126E+01 -1.375378788E+01 -3.659053574E+00  4.787180799E+01  9.166333973E-07  0.00000E+00  9.000E+00
      13     1     6     6     0     0 -1.478474775E+01  2.382965842E+01 -5.471622649E+01  6.148419982E+01  1.168007728E-06  0.00000E+00  9.000E+00
     -14     1     6     6     0     0  6.390410523E+01  3.252445548E+01 -2.055521263E+01  7.459283904E+01  2.236564522E-06  0.00000E+00  9.000E+00
       5     1     3     3   502     0 -7.153638360E+01 -1.065686023E+02 -1.236498259E+02  1.782867441E+02  4.750000000E+00  0.00000E+00  9.000E+00
      -5     1     4     4     0   504 -4.902990186E+01  1.079806332E+02 -2.089058455E+01  1.205102794E+02  4.750000000E+00  0.00000E+00  9.000E+00
      21     1     1     2   503   511  3.830151621E+01  2.726608988E+01 -3.985170888E+01  6.163282001E+01  4.768371582E-07  0.00000E+00  9.000E+00
</event>
<event>
     13  10001  1.00000E+00  1.49610E+01 -1.00000E+00  1.82547E-01
      21    -1     0     0   502   512  0.000000000E+00  0.000000000E+00  1.031112835E+02  1.031112835E+02  0.000000000E+00  0.00000E+00  9.000E+00
      21    -1     0     0   503   504  0.000000000E+00  0.000000000E+00 -6.845696731E+02  6.845696731E+02  0.000000000E+00  0.00000E+00  9.000E+00
       6     2     1     2   502     0  7.479012663E+01  7.962023624E+01 -5.481060695E+01  2.110003500E+02  1.720000000E+02  0.00000E+00  9.000E+00
      -6     2     1     2     0   504 -7.383148037E+01 -6.468997055E+01 -5.256128412E+02  5.616838422E+02  1.720000000E+02  0.00000E+00  9.000E+00
      24     2     3     3     0     0 -1.077875995E+01  3.877412555E+01  2.048456459E+01  8.982954299E+01  7.765381464E+01  0.00000E+00  9.000E+00
     -24     2     4     4     0     0 -2.313216868E+01 -9.938833611E+01 -2.774859149E+02  3.060201357E+02  7.897310872E+01  0.00000E+00  9.000E+00
     -11     1     5     5     0     0  9.089386201E+00 -2.154026803E+01  9.834263355E-01  2.340015418E+01  7.957136363E-07  0.00000E+00  9.000E+00
      12     1     5     5     0     0 -1.986814616E+01  6.031439358E+01  1.950113826E+01  6.642938881E+01  2.092114541E-06  0.00000E+00  9.000E+00
      13     1     6     6     0     0 -2.000748544E+01 -4.487903908E+01 -2.249371868E+02  2.302415376E+02  2.697398305E-06  0.00000E+00  9.000E+00
     -14     1     6     6     0     0 -3.124683235E+00 -5.450929703E+01 -5.254872811E+01  7.577859813E+01  1.907348633E-06  0.00000E+00  9.000E+00
       5     1     3     3   502     0  8.556888659E+01  4.084611069E+01 -7.529517154E+01  1.211708070E+02  4.750000000E+00  0.00000E+00  9.000E+00
      -5     1     4     4     0   504 -5.069931170E+01  3.469836557E+01 -2.481269263E+02  2.556637066E+02  4.750000000E+00  0.00000E+00  9.000E+00
      21     1     1     2   503   512 -9.586462603E-01 -1.493026570E+01 -1.034941421E+00  1.499676432E+01  2.528810911E-07  0.00000E+00  9.000E+00
</event>
<event>
     13  10001  1.00000E+00  4.36630E+00 -1.00000E+00  2.65697E-01
      -1    -1     0     0     0   512  0.000000000E+00  0.000000000E+00  4.249403222E+02  4.249403222E+02  0.000000000E+00  0.00000E+00  9.000E+00
       1    -1     0     0   511     0  0.000000000E+00  0.000000000E+00 -1.040505838E+02  1.040505838E+02  0.000000000E+00  0.00000E+00  9.000E+00
       6     2     1     2   502     0 -3.704514124E+01  3.626461261E+01  9.417389831E+01  2.028304409E+02  1.720000000E+02  0.00000E+00  9.000E+00
      -6     2     1     2     0   512  4.096890752E+01 -3.434923573E+01  2.468395812E+02  3.055684869E+02  1.720000000E+02  0.00000E+00  9.000E+00
      24     2     3     3     0     0 -6.742121829E+01 -9.551429018E+00  1.043923227E+02  1.467163212E+02  7.740201158E+01  0.00000E+00  9.000E+00
     -24     2     4     4     0     0 -3.569106599E+01 -3.741931589E+01  1.792745365E+02  2.032270257E+02  8.054692505E+01  0.00000E+00  9.000E+00
     -11     1     5     5     0     0  9.994859226E+00 -9.911251927E+00  5.040648070E+01  5.233491590E+01  6.743495762E-07  0.00000E+00  9.000E+00
      12     1     5     5     0     0 -7.741607752E+01  3.598229088E-01  5.398584200E+01  9.438140531E+01  1.784161275E-06  0.00000E+00  9.000E+00
      13     1     6     6     0     0 -2.303125816E+01 -4.040196447E+01  3.458941911E+01  5.795848083E+01  6.743495762E-07  0.00000E+00  9.000E+00
     -14     1     6     6     0     0 -1.265980782E+01  2.982648584E+00  1.446851174E+02  1.452685449E+02  1.907348633E-06  0.00000E+00  9.000E+00
       5     1     3     3   502     0  3.037607705E+01  4.581604163E+01 -1.021842439E+01  5.611411965E+01  4.750000000E+00  0.00000E+00  9.000E+00
      -5     1     4     4     0   512  7.665997351E+01  3.070080159E+00  6.756504463E+01  1.023414612E+02  4.750000000E+00  0.00000E+00  9.000E+00
      21     1     1     2   511   502 -3.923766277E+00 -1.915376882E+00 -2.012374111E+01  2.059197821E+01  3.371747881E-07  0.00000E+00  9.000E+00
</event>
<event>
     13  10001  1.00000E+00  4.42449E+00 -1.00000E+00  2.64325E-01
       2    -1     0     0   513     0  0.000000000E+00  0.000000000E+00  4.020236155E+02  4.020236155E+02  0.000000000E+00  0.00000E+00  9.000E+00
      -2    -1     0     0     0   512  0.000000000E+00  0.000000000E+00 -8.674071234E+01  8.674071234E+01  0.000000000E+00  0.00000E+00  9.000E+00
       6     2     1     2   502     0  7.836471590E+00  3.183838825E+01  1.360186562E+02  2.217209239E+02  1.720000000E+02  0.00000E+00  9.000E+00
      -6     2     1     2     0   512 -9.732422491E+00 -3.583607087E+01  1.330096481E+02  2.205776746E+02  1.720000000E+02  0.00000E+00  9.000E+00
      24     2     3     3     0     0  7.522408715E-01 -2.760764704E+01  1.235936910E+01  8.425020254E+01  7.862947655E+01  0.00000E+00  9.000E+00
     -24     2     4     4     0     0 -3.988488172E+01  3.366110977E+01  5.351420330E+01  1.106635392E+02  8.160131644E+01  0.00000E+00  9.000E+00
     -11     1     5     5     0     0 -9.688366598E+00  1.245657105E+01  3.403619173E+01  3.751656910E+01  4.768371582E-07  0.00000E+00  9.000E+00
      12     1     5     5     0     0  1.044060747E+01 -4.006421809E+01 -2.167682263E+01  4.673363344E+01  1.877309769E-06  0.00000E+00  9.000E+00
      13     1     6     6     0     0  8.824100172E+00 -1.912974975E+01 -4.063163510E-02  2.106688682E+01  6.880638347E-07  0.00000E+00  9.000E+00
     -14     1     6     6     0     0 -4.870898189E+01  5.279085952E+01  5.355483494E+01  8.959665234E+01  1.507891493E-06  0.00000E+00  9.000E+00
       5     1     3     3   502     0  7.084230718E+00  5.944603529E+01  1.236592871E+02  1.374707214E+02  4.750000000E+00  0.00000E+00  9.000E+00
      -5     1     4     4     0   512  3.015245922E+01 -6.949718063E+01  7.949544484E+01  1.099141354E+02  4.750000000E+00  0.00000E+00  9.000E+00
      21     1     1     2   513   502  1.895950902E+00  3.997682623E+00  4.625459876E+01  4.646572934E+01  6.743495762E-07  0.00000E+00  9.000E+00
</event>
<event>
     13  10001  1.00000E+00  7.12434E+01 -1.00000E+00  1.33511E-01
      21    -1     0     0   502   503  0.000000000E+00  0.000000000E+00  3.054031657E+02  3.054031657E+02  0.000000000E+00  0.00000E+00  9.000E+00
      21    -1     0     0   503   511  0.000000000E+00  0.000000000E+00 -5.947787288E+02  5.947787288E+02  0.000000000E+00  0.00000E+00  9.000E+00
       6     2     1     2   502     0  1.781858618E+02 -5.100421490E+01  1.749658997E+02  3.074877190E+02  1.720000000E+02  0.00000E+00  9.000E+00
      -6     2     1     2     0   504 -2.406637615E+02  1.676771957E+01 -3.892679576E+02  4.891970415E+02  1.720000000E+02  0.00000E+00  9.000E+00
      24     2     3     3     0     0  4.418841359E+01 -7.230367545E+01  9.290502911E+01  1.488512411E+02  7.965494435E+01  0.00000E+00  9.000E+00
     -24     2     4     4     0     0 -9.985728519E+01  2.013897741E+01 -2.875281606E+02  3.153828362E+02  8.010514596E+01  0.00000E+00  9.000E+00
     -11     1     5     5     0     0 -2.247775349E+01 -1.009496723E+01  1.447041869E+01  2.857535271E+01  9.684608465E-07  0.00000E+00  9.000E+00
      12     1     5     5     0     0  6.666616708E+01 -6.220870823E+01  7.843461042E+01  1.202758884E+02  2.336015456E-06  0.00000E+00  9.000E+00
      13     1     6     6     0     0 -1.078717405E+02  3.758597692E-01 -2.486127616E+02  2.710069352E+02  3.814697266E-06  0.00000E+00  9.000E+00
     -14     1     6     6     0     0  8.014455334E+00  1.976311764E+01 -3.891539897E+01  4.437590100E+01  1.784161275E-06  0.00000E+00  9.000E+00
       5     1     3     3   502     0  1.339974482E+02  2.129946055E+01  8.206087060E+01  1.586364779E+02  4.750000000E+00  0.00000E+00  9.000E+00
      -5     1     4     4     0   504 -1.408064763E+02 -3.371257836E+00 -1.017397971E+02  1.738142053E+02  4.750000000E+00  0.00000E+00  9.000E+00
      21     1     1     2   504   511  6.247789971E+01  3.423649534E+01 -7.507350516E+01  1.034971340E+02  0.000000000E+00  0.00000E+00  9.000E+00
</event>
<event>
     13  10001  1.00000E+00  1.22687E+02 -1.00000E+00  1.22198E-01
      21    -1     0     0   513   512  0.000000000E+00  0.000000000E+00  1.370514623E+02  1.370514623E+02  0.000000000E+00  0.00000E+00  9.000E+00
       1    -1     0     0   502     0  0.000000000E+00  0.000000000E+00 -8.627523824E+02  8.627523824E+02  0.000000000E+00  0.00000E+00  9.000E+00
       6     2     1     2   502     0 -1.344387248E+02  1.164580925E+02 -3.481911719E+02  4.271502666E+02  1.720000000E+02  0.00000E+00  9.000E+00
      -6     2     1     2     0   512  6.788249221E+01 -2.195234763E+02 -3.387311017E+02  4.439835005E+02  1.720000000E+02  0.00000E+00  9.000E+00
      24     2     3     3     0     0  2.150334573E+00  4.238013956E+01 -1.439607320E+02  1.704856034E+02  8.086994761E+01  0.00000E+00  9.000E+00
     -24     2     4     4     0     0  7.228159755E+01 -6.970636542E+01 -1.053494195E+02  1.665774966E+02  8.103058359E+01  0.00000E+00  9.000E+00
     -11     1     5     5     0     0  2.541072348E+01  2.715714848E+01 -1.767778781E+01  4.117911804E+01  1.526623782E-06  0.00000E+00  9.000E+00
      12     1     5     5     0     0 -2.326038890E+01  1.522299109E+01 -1.262829442E+02  1.293064854E+02  1.348699152E-06  0.00000E+00  9.000E+00
      13     1     6     6     0     0  3.224528642E+00  1.401608669E+01 -3.340278401E+01  3.636748892E+01  0.000000000E+00  0.00000E+00  9.000E+00
     -14     1     6     6     0     0  6.905706891E+01 -8.372245211E+01 -7.194663544E+01  1.302100077E+02  2.336015456E-06  0.00000E+00  9.000E+00
       5     1     3     3   502     0 -1.365890594E+02  7.407795298E+01 -2.042304399E+02  2.566646632E+02  4.750000000E+00  0.00000E+00  9.000E+00
      -5     1     4     4     0   512 -4.399105341E+00 -1.498171109E+02 -2.333816823E+02  2.774060038E+02  4.750000000E+00  0.00000E+00  9.000E+00
       1     1     1     2   513     0  6.655623261E+01  1.030653838E+02 -3.877864649E+01  1.286700776E+02  3.471426911E-06  0.00000E+00  9.000E+00
</event>
<event>
     13  10001  1.00000E+00  5.95431E+01 -1.00000E+00  1.37731E-01
      21    -1     0     0   502   511  0.000000000E+00  0.000000000E+00  4.356148695E+02  4.356148695E+02  0.000000000E+00  0.00000E+00  9.000E+00
      21    -1     0     0   503   504  0.000000000E+00  0.000000000E+00 -3.322021081E+02  3.322021081E+02  0.000000000E+00  0.00000E+00  9.000E+00
       6     2     1     2   502     0  3.242672896E+02  9.492925319E-01 -3.167078668E+01  3.684253180E+02  1.720000000E+02  0.00000E+00  9.000E+00
      -6     2     1     2     0   504 -2.651362603E+02  6.044050888E+00  1.185317256E+02  3.375907834E+02  1.720000000E+02  0.00000E+00  9.000E+00
      24     2     3     3     0     0  1.042094133E+02  3.383095200E+01 -4.203703628E+01  1.456323781E+02  8.624118511E+01  0.00000E+00  9.000E+00
     -24     2     4     4     0     0 -1.460244438E+02 -2.421164096E+01  2.567781291E+00  1.685546021E+02  8.058981724E+01  0.00000E+00  9.000E+00
     -11     1     5     5     0     0  6.309137110E+01  3.899408906E+01  1.446067612E+01  7.556567502E+01  2.198110689E-06  0.00000E+00  9.000E+00
      12     1     5     5     0     0  4.111804220E+01 -5.163137056E+00 -5.649771240E+01  7.006670311E+01  1.784161275E-06  0.00000E+00  9.000E+00
      13     1     6     6     0     0 -9.531547551E+01  2.248825505E+01  1.314640834E+01  9.881087764E+01  1.854461334E-06  0.00000E+00  9.000E+00
     -14     1     6     6     0     0 -5.070896830E+01 -4.669989601E+01 -1.057862705E+01  6.974372447E+01  2.155678430E-06  0.00000E+00  9.000E+00
       5     1     3     3   502     0  2.200578763E+02 -3.288165947E+01  1.036624960E+01  2.227929399E+02  4.750000000E+00  0.00000E+00  9.000E+00
      -5     1     4     4     0   504 -1.191118165E+02  3.025569185E+01  1.159639443E+02  1.690361813E+02  4.750000000E+00  0.00000E+00  9.000E+00
      21     1     1     2   503   511 -5.913102927E+01 -6.993343419E+00  1.655182251E+01  6.180087623E+01  1.039242493E-06  0.00000E+00  9.000E+00
</event>
<event>
     13  10001  1.00000E+00  4.70713E+01 -1.00000E+00  1.43694E-01
      21    -1     0     0   502   503  0.000000000E+00  0.000000000E+00  9.997339471E+02  9.997339471E+02  0.000000000E+00  0.00000E+00  9.000E+00
      21    -1     0     0   512   504  0.000000000E+00  0.000000000E+00 -1.178013831E+02  1.178013831E+02  0.000000000E+00  0.00000E+00  9.000E+00
       6     2     1     2   502     0 -1.244685696E+02 -8.888831408E+01  1.446023189E+02  2.718223461E+02  1.720000000E+02  0.00000E+00  9.000E+00
      -6     2     1     2     0   504  7.854227316E+01  7.856932571E+01  7.644436945E+02  7.913912999E+02  1.720000000E+02  0.00000E+00  9.000E+00
      24     2     3     3     0     0  4.575757019E-01 -2.659147569E+01  2.159845297E+01  8.570423469E+01  7.855830140E+01  0.00000E+00  9.000E+00
     -24     2     4     4     0     0  1.182438943E+02  2.097401074E+01  4.050047460E+02  4.251777568E+02  4.822606035E+01  0.00000E+00  9.000E+00
     -11     1     5     5     0     0  3.316891769E+01 -8.050003357E+00  3.189961274E+01  4.671792962E+01  1.348699152E-06  0.00000E+00  9.000E+00
      12     1     5     5     0     0 -3.271134199E+01 -1.854147233E+01 -1.030115977E+01  3.898630508E+01  2.387164163E-06  0.00000E+00  9.000E+00
      13     1     6     6     0     0  2.657095465E+01  5.295747228E+00  1.749389508E+02  1.770245663E+02  2.697398305E-06  0.00000E+00  9.000E+00
     -14     1     6     6     0     0  9.167293967E+01  1.567826351E+01  2.300657952E+02  2.481531905E+02  0.000000000E+00  0.00000E+00  9.000E+00
       5     1     3     3   502     0 -1.249261453E+02 -6.229683839E+01  1.230038659E+02  1.861181114E+02  4.750000000E+00  0.00000E+00  9.000E+00
      -5     1     4     4     0   504 -3.970162117E+01  5.759531497E+01  3.594389484E+02  3.662135431E+02  4.750000000E+00  0.00000E+00  9.000E+00
      21     1     1     2   512   503  4.592629643E+01  1.031898837E+01 -2.711344938E+01  5.432168408E+01  5.840038640E-07  0.00000E+00  9.000E+00
</event>
<event>
     13  10001  1.00000E+00  3.18414E+02 -1.00000E+00  1.06450E-01
      21    -1     0     0   511   503  0.000000000E+00  0.000000000E+00  2.440516215E+02  2.440516215E+02  0.000000000E+00  0.00000E+00  9.000E+00
      21    -1     0     0   503   504  0.000000000E+00  0.000000000E+00 -6.546463049E+02  6.546463049E+02  0.000000000E+00  0.00000E+00  9.000E+00
       6     2     1     2   502     0 -1.682918131E+02 -8.013439591E+01 -1.567526317E+02  2.981594260E+02  1.720000000E+02  0.00000E+00  9.000E+00
      -6     2     1     2     0   504 -8.991775431E+01 -1.061862449E+02 -1.427966647E+02  2.633165559E+02  1.720000000E+02  0.00000E+00  9.000E+00
      24     2     3     3     0     0 -1.179634053E+02 -6.166229280E+01 -2.835447120E+01  1.589372390E+02  8.209425418E+01  0.00000E+00  9.000E+00
     -24     2     4     4     0     0 -7.958082118E+01 -1.367215876E+00 -5.377849687E+01  1.253285936E+02  8.049939915E+01  0.00000E+00  9.000E+00
     -11     1     5     5     0     0 -1.103062365E+02 -4.537941079E+01 -5.124744703E+01  1.298193266E+02  1.348699152E-06  0.00000E+00  9.000E+00
      12     1     5     5     0     0 -7.657168771E+00 -1.628288201E+01  2.289297583E+01  2.911791240E+01  4.768371582E-07  0.00000E+00  9.000E+00
      13     1     6     6     0     0 -7.366889670E+01 -3.040844141E+01 -2.380555218E+01  8.317742461E+01  9.536743164E-07  0.00000E+00  9.000E+00
     -14     1     6     6     0     0 -5.911924483E+00  2.904122554E+01 -2.997294470E+01  4.215116897E+01  3.371747881E-07  0.00000E+00  9.000E+00
       5     1     3     3   502     0 -5.032840787E+01 -1.847210311E+01 -1.283981605E+02  1.392221870E+02  4.750000000E+00  0.00000E+00  9.000E+00
      -5     1     4     4     0   504 -1.033693312E+01 -1.048190290E+02 -8.901816787E+01  1.379879623E+02  4.750000000E+00  0.00000E+00  9.000E+00
      21     1     1     2   511   502  2.582095674E+02  1.863206408E+02 -1.110453868E+02  3.372219445E+02  7.509239077E-06  0.00000E+00  9.000E+00
</event>
<event>
     13  10001  1.00000E+00  1.18846E+01 -1.00000E+00  1.93145E-01
      21    -1     0     0   502   503  0.000000000E+00  0.000000000E+00  1.268871462E+02  1.268871462E+02  0.000000000E+00  0.00000E+00  9.000E+00
      21    -1     0     0   512   504  0.000000000E+00  0.000000000E+00 -3.541547085E+02  3.541547085E+02  0.000000000E+00  0.00000E+00  9.000E+00
       6     2     1     2   502     0  5.892927883E+01 -1.086676392E+01  3.455632313E-01  1.821396878E+02  1.720000000E+02  0.00000E+00  9.000E+00
      -6     2     1     2     0   504 -5.366493795E+01  2.152188064E+01 -2.178331814E+02  2.835108672E+02  1.720000000E+02  0.00000E+00  9.000E+00
      24     2     3     3     0     0  1.225059590E+01  4.084528691E+01 -3.830311817E+01  1.023316762E+02  8.477162575E+01  0.00000E+00  9.000E+00
     -24     2     4     4     0     0 -2.328854264E+01 -2.114594771E+01 -2.147398507E+02  2.308288004E+02  7.860804235E+01  0.00000E+00  9.000E+00
     -11     1     5     5     0     0 -1.136784162E+01  4.035384807E+01  1.459979577E+01  4.439386121E+01  1.130918620E-06  0.00000E+00  9.000E+00
      12     1     5     5     0     0  2.361843752E+01  4.914388425E-01 -5.290291394E+01  5.793781500E+01  1.168007728E-06  0.00000E+00  9.000E+00
      13     1     6     6     0     0 -2.232074033E+01 -2.676188385E+01 -2.994727232E+01  4.594837316E+01  7.539457465E-07  0.00000E+00  9.000E+00
     -14     1     6     6     0     0 -9.678023097E-01  5.615936143E+00 -1.847925783E+02  1.848804273E+02  2.697398305E-06  0.00000E+00  9.000E+00
       5     1     3     3   502     0  4.667868293E+01 -5.171205083E+01  3.864868141E+01  7.980801160E+01  4.750000000E+00  0.00000E+00  9.000E+00
      -5     1     4     4     0   504 -3.037639531E+01  4.266782834E+01 -3.093330756E+00  5.268206680E+01  4.750000000E+00  0.00000E+00  9.000E+00
      21     1     1     2   512   503 -5.264340879E+00 -1.065511672E+01 -9.779944138E+00  1.539129964E+01  2.384185791E-07  0.00000E+00  9.000E+00
</event>
<event>
     13  10001  1.00000E+00  1.61375E+01 -1.00000E+00  1.79320E-01
      -2    -1     0     0     0   511  0.000000000E+00  0.000000000E+00  2.190350399E+02  2.190350399E+02  0.000000000E+00  0.00000E+00  9.000E+00
       2    -1     0     0   502     0  0.000000000E+00  0.000000000E+00 -2.803426038E+02  2.803426038E+02  0.000000000E+00  0.00000E+00  9.000E+00
       6     2     1     2   502     0 -3.340243251E+01  1.088931674E+02  5.174377045E+01  2.126848894E+02  1.720000000E+02  0.00000E+00  9.000E+00
      -6     2     1     2     0   512  4.953260768E+01 -1.093796771E+02 -1.421680140E+02  2.534031120E+02  1.720000000E+02  0.00000E+00  9.000E+00
      24     2     3     3     0     0 -3.774444329E+01  5.742581608E+01 -3.553711678E+01  1.111553022E+02  7.981382826E+01  0.00000E+00  9.000E+00
     -24     2     4     4     0     0 -2.374095318E+01 -1.082500010E+02 -5.630274503E+01  1.404177245E+02  6.531035659E+01  0.00000E+00  9.000E+00
     -11     1     5     5     0     0 -1.882632017E+01  2.748983461E+01  2.456575098E+01  4.139562126E+01  9.536743164E-07  0.00000E+00  9.000E+00
      12     1     5     5     0     0 -1.891812311E+01  2.993598147E+01 -6.010286776E+01  6.975968092E+01  6.743495762E-07  0.00000E+00  9.000E+00
      13     1     6     6     0     0 -1.005425233E+01 -2.237407862E+01 -4.693057067E+01  5.295437515E+01  6.743495762E-07  0.00000E+00  9.000E+00
     -14     1     6     6     0     0 -1.368670084E+01 -8.587592239E+01 -9.372174359E+00  8.746334934E+01  2.387164163E-06  0.00000E+00  9.000E+00
       5     1     3     3   502     0  4.342010781E+00  5.146735134E+01  8.728088723E+01  1.015295872E+02  4.750000000E+00  0.00000E+00  9.000E+00
      -5     1     4     4     0   512  7.327356086E+01 -1.129676129E+00 -8.586526893E+01  1.129853875E+02  4.750000000E+00  0.00000E+00  9.000E+00
      21     1     1     2   512   511 -1.613017517E+01  4.865097196E-01  2.911667968E+01  3.328964221E+01  4.768371582E-07  0.00000E+00  9.000E+00
</event>
<event>
     13  10001  1.00000E+00  2.71556E+01 -1.00000E+00  1.59970E-01
      21    -1     0     0   502   503  0.000000000E+00  0.000000000E+00  1.827505537E+02  1.827505537E+02  0.000000000E+00  0.00000E+00  9.000E+00
       2    -1     0     0   503     0  0.000000000E+00  0.000000000E+00 -3.879200245E+02  3.879200245E+02  0.000000000E+00  0.00000E+00  9.000E+00
       6     2     1     2   502     0  1.296514325E+02 -4.293995237E+01 -1.252548937E+02  2.528361562E+02  1.720000000E+02  0.00000E+00  9.000E+00
      -6     2     1     2     0   504 -1.249008832E+02  1.620312536E+01  2.016689362E+01  2.141342465E+02  1.720000000E+02  0.00000E+00  9.000E+00
      24     2     3     3     0     0  4.663688481E+00 -4.498310083E+01 -6.625680865E+01  1.145269115E+02  8.173872656E+01  0.00000E+00  9.000E+00
     -24     2     4     4     0     0 -1.009612557E+02 -4.808761952E+01  3.766007508E+01  1.431766567E+02  8.109056340E+01  0.00000E+00  9.000E+00
     -11     1     5     5     0     0 -1.871663468E+01  1.190349122E+01  2.446736884E+00  2.231573522E+01  3.397987560E-07  0.00000E+00  9.000E+00
      12     1     5     5     0     0  2.338032317E+01 -5.688659205E+01 -6.870354554E+01  9.221117631E+01  1.651812370E-06  0.00000E+00  9.000E+00
      13     1     6     6     0     0 -3.953172137E+01  1.464812160E+01  3.587350995E+01  5.535551623E+01  1.066240300E-06  0.00000E+00  9.000E+00
     -14     1     6     6     0     0 -6.142953429E+01 -6.273574113E+01  1.786565129E+00  8.782114047E+01  2.336775754E-06  0.00000E+00  9.000E+00
       5     1     3     3   502     0  1.249877440E+02  2.043148460E+00 -5.899808508E+01  1.383092446E+02  4.750000000E+00  0.00000E+00  9.000E+00
      -5     1     4     4     0   504 -2.393962758E+01  6.429074489E+01 -1.749318146E+01  7.095758976E+01  4.750000000E+00  0.00000E+00  9.000E+00
       2     1     1     2   504     0 -4.750549247E+00  2.673682701E+01 -1.000814707E+02  1.037001756E+02  1.348699152E-06  0.00000E+00  9.000E+00
</event>
<event>
     13  10001  1.00000E+00  7.01932E+01 -1.00000E+00  1.33850E-01
      21    -1     0     0   511   503  0.000000000E+00  0.000000000E+00  4.310930762E+02  4.310930762E+02  0.000000000E+00  0.00000E+00  9.000E+00
      21    -1     0     0   503   504  0.000000000E+00  0.000000000E+00 -3.003975058E+02  3.003975058E+02  0.000000000E+00  0.00000E+00  9.000E+00
       6     2     1     2   502     0  1.174887058E+01  7.312339417E+01 -1.737376650E+02  2.554483176E+02  1.720000000E+02  0.00000E+00  9.000E+00
      -6     2     1     2     0   504 -4.331268473E+01 -1.042716176E+01  1.510018755E+01  1.783163762E+02  1.720000000E+02  0.00000E+00  9.000E+00
      24     2     3     3     0     0  6.251440363E+01  6.875783799E+00 -8.065871471E+01  1.303398099E+02  8.079177380E+01  0.00000E+00  9.000E+00
     -24     2     4     4     0     0 -7.137309308E+01  3.234472059E+01 -2.249210300E+01  1.146566303E+02  8.062226006E+01  0.00000E+00  9.000E+00
     -11     1     5     5     0     0 -1.717697821E+01  2.152762451E+00 -3.326585360E+01  3.750066642E+01  4.768371582E-07  0.00000E+00  9.000E+00
      12     1     5     5     0     0  7.969138184E+01  4.723021349E+00 -4.739286112E+01  9.283914344E+01  9.536743164E-07  0.00000E+00  9.000E+00
      13     1     6     6     0     0 -5.100635998E+01  5.022072216E+01  1.007881135E+01  7.228659717E+01  4.915124924E-07  0.00000E+00  9.000E+00
     -14     1     6     6     0     0 -2.036673310E+01 -1.787600157E+01 -3.257091435E+01  4.237003317E+01  4.768371582E-07  0.00000E+00  9.000E+00
       5     1     3     3   502     0 -5.076553304E+01  6.624761037E+01 -9.307895028E+01  1.251085077E+02  4.750000000E+00  0.00000E+00  9.000E+00
      -5     1     4     4     0   504  2.806040835E+01 -4.277188235E+01  3.759229054E+01  6.365974587E+01  4.750000000E+00  0.00000E+00  9.000E+00
      21     1     1     2   511   502  3.156381414E+01 -6.269623242E+01  2.893330478E+02  2.977258882E+02  0.000000000E+00  0.00000E+00  9.000E+00
</event>
<event>
     13  10001  1.00000E+00  2.66889E+01 -1.00000E+00  1.60545E-01
      21    -1     0     0   502   512  0.000000000E+00  0.000000000E+00  9.428530400E+01  9.428530400E+01  0.000000000E+00  0.00000E+00  9.000E+00
      21    -1     0     0   503   504  0.000000000E+00  0.000000000E+00 -5.360939136E+02  5.360939136E+02  0.000000000E+00  0.00000E+00  9.000E+00
       6     2     1     2   502     0 -9.863458721E+01 -1.236481977E+00 -1.587215454E+02  2.539819672E+02  1.720000000E+02  0.00000E+00  9.000E+00
      -6     2     1     2     0   504  1.055677302E+02 -2.453613457E+01 -2.844983309E+02  3.496710852E+02  1.720000000E+02  0.00000E+00  9.000E+00
      24     2     3     3     0     0 -8.287007546E+01  4.990833636E+01 -1.553799940E+02  2.001485135E+02  8.098267383E+01  0.00000E+00  9.000E+00
     -24     2     4     4     0     0  1.238216781E+02 -1.275256767E+01 -1.442222787E+02  2.076429458E+02  8.258989839E+01  0.00000E+00  9.000E+00
     -11     1     5     5     0     0  1.532235474E+00  1.466925999E+01 -8.079334277E+01  8.212855271E+01  1.651812370E-06  0.00000E+00  9.000E+00
      12     1     5     5     0     0 -8.440231093E+01  3.523907637E+01 -7.458665122E+01  1.180199607E+02  1.348699152E-06  0.00000E+00  9.000E+00
      13     1     6     6     0     0  2.142620675E+01  2.004176679E+01 -7.299812732E+01  7.867325686E+01  9.536743164E-07  0.00000E+00  9.000E+00
     -14     1     6     6     0     0  1.023954714E+02 -3.279433446E+01 -7.122415138E+01  1.289696890E+02  1.907348633E-06  0.00000E+00  9.000E+00
       5     1     3     3   502     0 -1.576451175E+01 -5.114481833E+01 -3.341551379E+00  5.383345371E+01  4.750000000E+00  0.00000E+00  9.000E+00
      -5     1     4     4     0   504 -1.825394794E+01 -1.178356690E+01 -1.402760522E+02  1.420281394E+02  4.750000000E+00  0.00000E+00  9.000E+00
      21     1     1     2   503   512 -6.933142977E+00  2.577261655E+01  1.411266631E+00  2.672616524E+01  4.937661149E-07  0.00000E+00  9.000E+00
</event>
<event>
     13  10001  1.00000E+00  1.43766E+01 -1.00000E+00  1.84294E-01
      21    -1     0     0   502   511  0.000000000E+00  0.000000000E+00  1.368153226E+02  1.368153226E+02  0.000000000E+00  0.00000E+00  9.000E+00
      21    -1     0     0   503   504  0.000000000E+00  0.000000000E+00 -1.548891000E+03  1.548891000E+03  0.000000000E+00  0.00000E+00  9.000E+00
       6     2     1     2   502     0 -1.258658081E+02 -6.446592111E+00 -9.973679614E+01  2.354043090E+02  1.720000000E+02  0.00000E+00  9.000E+00
      -6     2     1     2     0   504  1.233762992E+02  2.060601019E+01 -1.372279345E+03  1.388661557E+03  1.720000000E+02  0.00000E+00  9.000E+00
      24     2     3     3     0     0 -6.897779918E+01 -5.039161934E+01 -1.124858502E+02  1.622434461E+02  7.982867437E+01  0.00000E+00  9.000E+00
     -24     2     4     4     0     0  1.439110376E+02  8.692711025E+00 -1.328056376E+03  1.338244936E+03  7.987378181E+01  0.00000E+00  9.000E+00
     -11     1     5     5     0     0 -2.396536534E+01  2.129022391E+01 -3.542649500E+01  4.777707524E+01  1.066240300E-06  0.00000E+00  9.000E+00
      12     1     5     5     0     0 -4.501243383E+01 -7.168184325E+01 -7.705935516E+01  1.144663709E+02  2.336015456E-06  0.00000E+00  9.000E+00
      13     1     6     6     0     0  7.084332780E+01  3.489466659E+01 -8.779235130E+02  8.814681557E+02  1.078959322E-05  0.00000E+00  9.000E+00
     -14     1     6     6     0     0  7.306770980E+01 -2.620195557E+01 -4.501328627E+02  4.567767800E+02  1.206313194E-05  0.00000E+00  9.000E+00
       5     1     3     3   502     0 -5.688800893E+01  4.394502723E+01  1.274905402E+01  7.316086288E+01  4.750000000E+00  0.00000E+00  9.000E+00
      -5     1     4     4     0   504 -2.053473838E+01  1.191329917E+01 -4.422296953E+01  5.041662138E+01  4.750000000E+00  0.00000E+00  9.000E+00
      21     1     1     2   503   511  2.489508889E+00 -1.415941808E+01  5.994046347E+01  6.164045697E+01  2.132480600E-06  0.00000E+00  9.000E+00
</event>
<event>
     13  10001  1.00000E+00  8.39107E+01 -1.00000E+00  1.29885E-01
      21    -1     0     0   503   512  0.000000000E+00  0.000000000E+00  1.105619741E+03  1.105619741E+03  0.000000000E+00  0.00000E+00  9.000E+00
      21    -1     0     0   502   503  0.000000000E+00  0.000000000E+00 -1.589115454E+02  1.589115454E+02  0.000000000E+00  0.00000E+00  9.000E+00
       6     2     1     2   502     0  8.586202926E+01  4.728879657E+01  1.410935660E+02  2.431047361E+02  1.720000000E+02  0.00000E+00  9.000E+00
      -6     2     1     2     0   504 -2.143776510E+00 -4.160881899E+01 -3.180837413E+01  1.798100727E+02  1.720000000E+02  0.00000E+00  9.000E+00
      24     2     3     3     0     0  5.076136908E-02 -3.270259126E+00  1.310686726E+01  8.086124821E+01  7.972486639E+01  0.00000E+00  9.000E+00
     -24     2     4     4     0     0 -1.348160813E+01  4.164583399E+01 -2.704336834E+01  9.551801234E+01  8.047495053E+01  0.00000E+00  9.000E+00
     -11     1     5     5     0     0  2.173499037E+01  2.509547589E+01 -1.400222628E+01  3.603130662E+01  7.907449699E-07  0.00000E+00  9.000E+00
      12     1     5     5     0     0 -2.168422900E+01 -2.836573501E+01  2.710909354E+01  4.482994159E+01  5.840038640E-07  0.00000E+00  9.000E+00
      13     1     6     6     0     0  3.401987327E+01  1.761298509E+01 -9.533726318E+00  3.947734741E+01  4.915124924E-07  0.00000E+00  9.000E+00
     -14     1     6     6     0     0 -4.750148140E+01  2.403284889E+01 -1.750964203E+01  5.604066492E+01  2.249236377E-06  0.00000E+00  9.000E+00
       5     1     3     3   502     0  8.581126789E+01  5.055905570E+01  1.279866987E+02  1.622434879E+02  4.750000000E+00  0.00000E+00  9.000E+00
      -5     1     4     4     0   504  1.133783162E+01 -8.325465297E+01 -4.765005790E+00  8.429206041E+01  4.750000000E+00  0.00000E+00  9.000E+00
      21     1     1     2   504   512 -8.371825275E+01 -5.679977584E+00  8.374230037E+02  8.416164774E+02  1.078959322E-05  0.00000E+00  9.000E+00
</event>
<event>
     13  10001  1.00000E+00  4.52132E+01 -1.00000E+00  1.44770E-01
      21    -1     0     0   503   511  0.000000000E+00  0.000000000E+00  5.339189569E+02  5.339189569E+02  0.000000000E+00  0.00000E+00  9.000E+00
      21    -1     0     0   502   503  0.000000000E+00  0.000000000E+00 -9.817637009E+01  9.817637009E+01  0.000000000E+00  0.00000E+00  9.000E+00
       6     2     1     2   502     0  5.438002693E+00 -5.486832693E+01  1.735965013E+02  2.505191618E+02  1.720000000E+02  0.00000E+00  9.000E+00
      -6     2     1     2     0   504  3.922375850E+01  4.782819007E+01  9.028301999E+01  2.038653053E+02  1.720000000E+02  0.00000E+00  9.000E+00
      24     2     3     3     0     0 -5.755612591E+01 -7.467561374E+00  6.823431341E+01  1.188421101E+02  7.809643718E+01  0.00000E+00  9.000E+00
     -24     2     4     4     0     0  6.913212152E+01 -6.270868706E+00  9.403448396E+01  1.417536774E+02  8.020627690E+01  0.00000E+00  9.000E+00
     -11     1     5     5     0     0 -2.561752859E+01 -3.364031605E+01  6.484149547E+01  7.741025881E+01  9.536743164E-07  0.00000E+00  9.000E+00
      12     1     5     5     0     0 -3.193859732E+01  2.617275468E+01  3.392817947E+00  4.143185128E+01  1.365713982E-06  0.00000E+00  9.000E+00
      13     1     6     6     0     0  3.963439322E+01 -4.208477088E+01  3.882861218E+01  6.963960217E+01  0.000000000E+00  0.00000E+00  9.000E+00
     -14     1     6     6     0     0  2.949772830E+01  3.581390218E+01  5.520587177E+01  7.211407520E+01  0.000000000E+00  0.00000E+00  9.000E+00
       5     1     3     3   502     0  6.299412861E+01 -4.740076555E+01  1.053621879E+02  1.316770517E+02  4.750000000E+00  0.00000E+00  9.000E+00
      -5     1     4     4     0   504 -2.990836302E+01  5.409905878E+01 -3.751463972E+00  6.211162790E+01  4.750000000E+00  0.00000E+00  9.000E+00
      21     1     1     2   504   511 -4.466176119E+01  7.040136856E+00  1.718630655E+02  1.777108599E+02  0.000000000E+00  0.00000E+00  9.000E+00
</event>
<event>
     13  10001  1.00000E+00  6.62984E+01 -1.00000E+00  1.35171E-01
      21    -1     0     0   512   504  0.000000000E+00  0.000000000E+00  9.099107491E+01  9.099107491E+01  0.000000000E+00  0.00000E+00  9.000E+00
      21    -1     0     0   502   503  0.000000000E+00  0.000000000E+00 -7.603353588E+02  7.603353588E+02  0.000000000E+00  0.00000E+00  9.000E+00
       6     2     1     2   502     0  5.012629909E+01 -1.010871474E+02 -2.534818972E+02  3.264480501E+02  1.720000000E+02  0.00000E+00  9.000E+00
      -6     2     1     2     0   504 -5.923780568E+01  1.667564943E+02 -3.680938233E+02  4.431635237E+02  1.720000000E+02  0.00000E+00  9.000E+00
      24     2     3     3     0     0  3.090023557E+00 -6.113514288E+01 -5.222204419E+01  1.158853165E+02  8.339790603E+01  0.00000E+00  9.000E+00
     -24     2     4     4     0     0 -9.745611032E+01  1.357884136E+02 -2.257370882E+02  2.924729024E+02  8.152900672E+01  0.00000E+00  9.000E+00
     -11     1     5     5     0     0  3.982305763E+01 -5.218491135E+01 -3.314002025E+01  7.353503814E+01  1.966049969E-06  0.00000E+00  9.000E+00
      12     1     5     5     0     0 -3.673303407E+01 -8.950231529E+00 -1.908202394E+01  4.235027832E+01  7.539457465E-07  0.00000E+00  9.000E+00
      13     1     6     6     0     0 -3.939747361E+01  4.797489223E+01 -2.724762854E+01  6.779516555E+01  1.685873940E-06  0.00000E+00  9.000E+00
     -14     1     6     6     0     0 -5.805863671E+01  8.781352133E+01 -1.984894597E+02  2.246777368E+02  2.697398305E-06  0.00000E+00  9.000E+00
       5     1     3     3   502     0  4.703627553E+01 -3.995200447E+01 -2.012598530E+02  2.105627336E+02  4.750000000E+00  0.00000E+00  9.000E+00
      -5     1     4     4     0   504  3.821830464E+01  3.096808070E+01 -1.423567351E+02  1.506906214E+02  4.750000000E+00  0.00000E+00  9.000E+00
      21     1     1     2   512   503  9.111506584E+00 -6.566934691E+01 -4.776856338E+01  8.171485987E+01  1.507891493E-06  0.00000E+00  9.000E+00
</event>
<event>
     13  10001  1.00000E+00  1.36338E+01 -1.00000E+00  1.86675E-01
      21    -1     0     0   511   504  0.000000000E+00  0.000000000E+00  2.544526136E+02  2.544526136E+02  0.000000000E+00  0.00000E+00  9.000E+00
      21    -1     0     0   502   503  0.000000000E+00  0.000000000E+00 -5.868790877E+02  5.868790877E+02  0.000000000E+00  0.00000E+00  9.000E+00
       6     2     1     2   502     0  2.454488168E+02 -2.732667534E+01  1.567225420E+01  3.013660372E+02  1.720000000E+02  0.00000E+00  9.000E+00
      -6     2     1     2     0   504 -2.386181064E+02  1.552749058E+01 -3.940839696E+02  4.920019093E+02  1.720000000E+02  0.00000E+00  9.000E+00
      24     2     3     3     0     0  2.583273592E+02 -1.657023221E+01  3.713892120E+01  2.737085208E+02  8.080506022E+01  0.00000E+00  9.000E+00
     -24     2     4     4     0     0 -2.227465352E+02  2.778934574E+01 -2.546345949E+02  3.510375504E+02  8.944449790E+01  0.00000E+00  9.000E+00
     -11     1     5     5     0     0  1.051833362E+02  2.022187206E+00  5.447318601E+01  1.184692004E+02  3.754619538E-06  0.00000E+00  9.000E+00
      12     1     5     5     0     0  1.531440230E+02 -1.859241942E+01 -1.733426480E+01  1.552393203E+02  1.261592536E-06  0.00000E+00  9.000E+00
      13     1     6     6     0     0 -2.077025468E+01 -2.038476184E+01 -1.146980533E+01  3.128095952E+01  7.152557373E-07  0.00000E+00  9.000E+00
     -14     1     6     6     0     0 -2.019762806E+02  4.817410757E+01 -2.431647895E+02  3.197565909E+02  0.000000000E+00  0.00000E+00  9.000E+00
       5     1     3     3   502     0 -1.287854245E+01 -1.075644313E+01 -2.146666700E+01  2.765751646E+01  4.750000000E+00  0.00000E+00  9.000E+00
      -5     1     4     4     0   504 -1.587157117E+01 -1.226185516E+01 -1.394493747E+02  1.409643589E+02  4.750000000E+00  0.00000E+00  9.000E+00
      21     1     1     2   511   503 -6.830710341E+00  1.179918477E+01  4.598524126E+01  4.796375484E+01  9.536743164E-07  0.00000E+00  9.000E+00
</event>
<event>
     13  10001  1.00000E+00  6.98788E+01 -1.00000E+00  1.33953E-01
      21    -1     0     0   503   512  0.000000000E+00  0.000000000E+00  7.954847086E+02  7.954847086E+02  0.000000000E+00  0.00000E+00  9.000E+00
      21    -1     0     0   502   503  0.000000000E+00  0.000000000E+00 -1.145513884E+02  1.145513884E+02  0.000000000E+00  0.00000E+00  9.000E+00
       6     2     1     2   502     0 -8.388713965E+01 -8.156881818E+01  5.277075144E+02  5.672298873E+02  1.720000000E+02  0.00000E+00  9.000E+00
      -6     2     1     2     0   504  1.096143656E+02  1.659839317E+01  3.812600549E+01  2.081547696E+02  1.720000000E+02  0.00000E+00  9.000E+00
      24     2     3     3     0     0 -1.089630027E+02 -9.802179423E+01  3.192801800E+02  3.566022169E+02  6.118904823E+01  0.00000E+00  9.000E+00
     -24     2     4     4     0     0  1.331553771E+02  2.204175524E+00  6.553853327E+01  1.689708201E+02  8.075039237E+01  0.00000E+00  9.000E+00
     -11     1     5     5     0     0 -9.350700891E+01 -1.056946479E+02  2.921727034E+02  3.244685007E+02  8.529922400E-06  0.00000E+00  9.000E+00
      12     1     5     5     0     0 -1.545599382E+01  7.672853692E+00  2.710747659E+01  3.213371618E+01  8.259061849E-07  0.00000E+00  9.000E+00
      13     1     6     6     0     0 -1.122832479E+01 -1.357282161E+00  5.119093749E+00  1.241461289E+01  7.202056631E-07  0.00000E+00  9.000E+00
     -14     1     6     6     0     0  1.443837019E+02  3.561457685E+00  6.041943952E+01  1.565562072E+02  3.568322551E-06  0.00000E+00  9.000E+00
       5     1     3     3   502     0  2.507586308E+01  1.645297605E+01  2.084273344E+02  2.106276704E+02  4.750000000E+00  0.00000E+00  9.000E+00
      -5     1     4     4     0   504 -2.354101142E+01  1.439421764E+01 -2.741252778E+01  3.918394951E+01  4.750000000E+00  0.00000E+00  9.000E+00
      21     1     1     2   504   512 -2.572722600E+01  6.497042502E+01  1.150998004E+02  1.346514401E+02  0.000000000E+00  0.00000E+00  9.000E+00
</event>
<event>
     13  10001  1.00000E+00  1.75829E+01 -1.00000E+00  1.75803E-01
      21    -1     0     0   511   503  0.000000000E+00  0.000000000E+00  1.010063179E+03  1.010063179E+03  0.000000000E+00  0.00000E+00  9.000E+00
      21    -1     0     0   503   504  0.000000000E+00  0.000000000E+00 -5.606803713E+01  5.606803713E+01  0.000000000E+00  0.00000E+00  9.000E+00
       6     2     1     2   502     0 -2.262102467E+01  2.543774658E+01  1.496654119E+02  2.305266258E+02  1.720000000E+02  0.00000E+00  9.000E+00
      -6     2     1     2     0   504  1.370341860E+01 -1.028400352E+01  4.694034856E+02  5.002171295E+02  1.720000000E+02  0.00000E+00  9.000E+00
      24     2     3     3     0     0 -7.423224864E+01 -4.841322293E+00  1.196073738E+02  1.633954959E+02  8.281484819E+01  0.00000E+00  9.000E+00
     -24     2     4     4     0     0 -5.360436478E+01  1.591908462E+01  3.138657392E+02  3.286610379E+02  7.987196258E+01  0.00000E+00  9.000E+00
     -11     1     5     5     0     0 -6.053269258E+01  3.282333791E+01  5.869475415E+01  9.048012239E+01  1.651812370E-06  0.00000E+00  9.000E+00
      12     1     5     5     0     0 -1.369955605E+01 -3.766466020E+01  6.091261965E+01  7.291537353E+01  9.536743164E-07  0.00000E+00  9.000E+00
      13     1     6     6     0     0 -1.525785618E+01  4.545092891E+01  1.309683255E+02  1.394678866E+02  2.697398305E-06  0.00000E+00  9.000E+00
     -14     1     6     6     0     0 -3.834650861E+01 -2.953184430E+01  1.828974137E+02  1.891931512E+02  2.697398305E-06  0.00000E+00  9.000E+00
       5     1     3     3   502     0  5.161122397E+01  3.027906887E+01  3.005803808E+01  6.713112992E+01  4.750000000E+00  0.00000E+00  9.000E+00
      -5     1     4     4     0   504  6.730778339E+01 -2.620308814E+01  1.555377464E+02  1.715560916E+02  4.750000000E+00  0.00000E+00  9.000E+00
      21     1     1     2   511   502  8.917606067E+00 -1.515374306E+01  3.349262443E+02  3.353874606E+02  0.000000000E+00  0.00000E+00  9.000E+00
</event>
<event>
     13  10001  1.00000E+00  8.80124E+01 -1.00000E+00  1.28865E-01
      21    -1     0     0   502   503  0.000000000E+00  0.000000000E+00  5.031484530E+02  5.031484530E+02  0.000000000E+00  0.00000E+00  9.000E+00
      21    -1     0     0   512   504  0.000000000E+00  0.000000000E+00 -1.722365131E+02  1.722365131E+02  0.000000000E+00  0.00000E+00  9.000E+00
       6     2     1     2   502     0  1.066149681E+02 -1.020520450E+02  1.657528495E+02  2.807835081E+02  1.720000000E+02  0.00000E+00  9.000E+00
      -6     2     1     2     0   504 -1.820285458E+02  5.667602007E+01  1.674741520E+02  3.065585659E+02  1.720000000E+02  0.00000E+00  9.000E+00
      24     2     3     3     0     0  3.825124815E+00 -8.191048107E+01  8.758642221E+01  1.500012947E+02  9.002804327E+01  0.00000E+00  9.000E+00
     -24     2     4     4     0     0 -2.777777658E+01 -1.855742322E+01  5.570638284E+01  1.016977167E+02  7.825114488E+01  0.00000E+00  9.000E+00
     -11     1     5     5     0     0 -3.567766894E+01 -1.797345597E+01  5.525995886E+01  6.818800652E+01  9.536743164E-07  0.00000E+00  9.000E+00
      12     1     5     5     0     0  3.950279376E+01 -6.393702510E+01  3.232646335E+01  8.181328820E+01  1.430511475E-06  0.00000E+00  9.000E+00
      13     1     6     6     0     0 -2.192208259E+01 -2.096518228E+01  7.526086173E+01  8.114378523E+01  0.000000000E+00  0.00000E+00  9.000E+00
     -14     1     6     6     0     0 -5.855693991E+00  2.407759068E+00 -1.955447889E+01  2.055393151E+01  7.539457465E-07  0.00000E+00  9.000E+00
       5     1     3     3   502     0  1.027898433E+02 -2.014156388E+01  7.816642734E+01  1.307822134E+02  4.750000000E+00  0.00000E+00  9.000E+00
      -5     1     4     4     0   504 -1.542507692E+02  7.523344329E+01  1.117677692E+02  2.048608491E+02  4.750000000E+00  0.00000E+00  9.000E+00
      21     1     1     2   512   503  7.541357764E+01  4.537602488E+01 -2.315061715E+00  8.804289204E+01  1.352644648E-06  0.00000E+00  9.000E+00
</event>
<event>
     13  10001  1.00000E+00  1.17992E+02 -1.00000E+00  1.22945E-01
       2    -1     0     0   503     0  0.000000000E+00  0.000000000E+00  2.063198296E+03  2.063198296E+03  0.000000000E+00  0.00000E+00  9.000E+00
      21    -1     0     0   502   503  0.000000000E+00  0.000000000E+00 -1.835936312E+02  1.835936312E+02  0.000000000E+00  0.00000E+00  9.000E+00
       6     2     1     2   502     0 -1.260243549E+02 -1.234218406E+01 -1.000013931E+02  2.358362698E+02  1.720000000E+02  0.00000E+00  9.000E+00
      -6     2     1     2     0   504  8.162444178E+00  1.787174796E+01  5.526672986E+02  5.791469311E+02  1.720000000E+02  0.00000E+00  9.000E+00
      24     2     3     3     0     0 -1.301589014E+02 -2.959283214E+01 -1.285050817E+02  2.019290124E+02  8.027885582E+01  0.00000E+00  9.000E+00
     -24     2     4     4     0     0  2.512496933E+00 -4.170019954E+01  4.619052814E+02  4.703303648E+02  7.815973263E+01  0.00000E+00  9.000E+00
     -11     1     5     5     0     0 -1.059526824E+02 -1.421079988E+01 -4.935840617E+01  1.177462101E+02  3.754619538E-06  0.00000E+00  9.000E+00
      12     1     5     5     0     0 -2.420621909E+01 -1.538203226E+01 -7.914667554E+01  8.418280233E+01  2.132480600E-06  0.00000E+00  9.000E+00
      13     1     6     6     0     0  1.415680964E+01 -5.985038187E+01  2.553313165E+02  2.626338985E+02  4.672030912E-06  0.00000E+00  9.000E+00
     -14     1     6     6     0     0 -1.164431271E+01  1.815018233E+01  2.065739649E+02  2.076964663E+02  5.394796609E-06  0.00000E+00  9.000E+00
       5     1     3     3   502     0  4.134546580E+00  1.725064809E+01  2.850368865E+01  3.390725735E+01  4.750000000E+00  0.00000E+00  9.000E+00
      -5     1     4     4     0   504  5.649947245E+00  5.957194750E+01  9.076201722E+01  1.088165663E+02  4.750000000E+00  0.00000E+00  9.000E+00
       2     1     1     2   504     0  1.178619107E+02 -5.529563904E+00  1.426938760E+03  1.431808727E+03  0.000000000E+00  0.00000E+00  9.000E+00
</event>
<event>
     13  10001  1.00000E+00  1.62358E+01 -1.00000E+00  1.79066E-01
      -1    -1     0     0     0   504  0.000000000E+00  0.000000000E+00  7.844996129E+02  7.844996129E+02  0.000000000E+00  0.00000E+00  9.000E+00
      21    -1     0     0   502   503  0.000000000E+00  0.000000000E+00 -9.597519736E+01  9.597519736E+01  0.000000000E+00  0.00000E+00  9.000E+00
       6     2     1     2   502     0  6.403084167E+00  1.505896866E+02  2.031364612E+02  3.058867030E+02  1.720000000E+02  0.00000E+00  9.000E+00
      -6     2     1     2     0   504 -1.523894118E+01 -1.369687453E+02  2.295274783E+02  3.182130195E+02  1.720000000E+02  0.00000E+00  9.000E+00
      24     2     3     3     0     0 -1.684781473E+01  1.232912887E+01  4.163041985E+01  9.196300160E+01  7.929845854E+01  0.00000E+00  9.000E+00
     -24     2     4     4     0     0  3.571965527E+01 -4.989218072E+01  5.106263098E+01  1.131487104E+02  8.018799734E+01  0.00000E+00  9.000E+00
     -11     1     5     5     0     0  2.504845617E+01 -1.349903405E+01  3.008413741E+01  4.140898936E+01  8.259061849E-07  0.00000E+00  9.000E+00
      12     1     5     5     0     0 -4.189627090E+01  2.582816292E+01  1.154628244E+01  5.055401223E+01  1.011524364E-06  0.00000E+00  9.000E+00
      13     1     6     6     0     0  3.823868295E+00  1.490574015E+01  3.630785764E+01  3.943429452E+01  4.768371582E-07  0.00000E+00  9.000E+00
     -14     1     6     6     0     0  3.189578698E+01 -6.479792087E+01  1.475477335E+01  7.371441591E+01  1.092571186E-06  0.00000E+00  9.000E+00
       5     1     3     3   502     0  2.325089890E+01  1.382605577E+02  1.615060414E+02  2.139237014E+02  4.750000000E+00  0.00000E+00  9.000E+00
      -5     1     4     4     0   504 -5.095859645E+01 -8.707656455E+01  1.784648473E+02  2.050643091E+02  4.750000000E+00  0.00000E+00  9.000E+00
      -1     1     1     2     0   503  8.835857008E+00 -1.362094133E+01  2.558604760E+02  2.563750877E+02  2.697398305E-06  0.00000E+00  9.000E+00
</event>
<event>
     13  10001  1.00000E+00  7.21396E+00 -1.00000E+00  2.21216E-01
       2    -1     0     0   502     0  0.000000000E+00  0.000000000E+00  5.072906750E+02  5.072906750E+02  0.000000000E+00  0.00000E+00  9.000E+00
      21    -1     0     0   511   512  0.000000000E+00  0.000000000E+00 -1.546791339E+02  1.546791339E+02  0.000000000E+00  0.00000E+00  9.000E+00
       6     2     1     2   502     0  3.350802657E+01 -1.424107338E+02  3.616919625E+02  4.263902915E+02  1.720000000E+02  0.00000E+00  9.000E+00
      -6     2     1     2     0   512 -2.772769365E+01  1.467268587E+02 -1.123036399E+01  2.280520054E+02  1.720000000E+02  0.00000E+00  9.000E+00
      24     2     3     3     0     0 -3.825830991E+01 -9.096480196E+01  1.489285486E+02  1.959821238E+02  8.056666048E+01  0.00000E+00  9.000E+00
     -24     2     4     4     0     0  3.037961139E+01  6.546782730E+01  4.723647924E+01  1.122054545E+02  7.176225921E+01  0.00000E+00  9.000E+00
     -11     1     5     5     0     0  2.442150826E+01 -3.345221846E+01  6.010847777E+01  7.299650735E+01  1.348699152E-06  0.00000E+00  9.000E+00
      12     1     5     5     0     0 -6.267981817E+01 -5.751258350E+01  8.882007081E+01  1.229856164E+02  3.438521648E-06  0.00000E+00  9.000E+00
      13     1     6     6     0     0  3.612153444E+01  2.801755881E+00  5.378608330E+00  3.662710081E+01  0.000000000E+00  0.00000E+00  9.000E+00
     -14     1     6     6     0     0 -5.741923052E+00  6.266607142E+01  4.185787091E+01  7.557835368E+01  1.581489940E-06  0.00000E+00  9.000E+00
       5     1     3     3   502     0  7.176633647E+01 -5.144593185E+01  2.127634139E+02  2.304081678E+02  4.750000000E+00  0.00000E+00  9.000E+00
      -5     1     4     4     0   512 -5.810730504E+01  8.125903144E+01 -5.846684323E+01  1.158465509E+02  4.750000000E+00  0.00000E+00  9.000E+00
       2     1     1     2   511     0 -5.780332916E+00 -4.316124931E+00  2.149942576E+00  7.527511947E+00  4.214684851E-08  0.00000E+00  9.000E+00
</event>
<event>
     13  10001  1.00000E+00  1.61403E+00 -1.00000E+00  4.44883E-01
       1    -1     0     0   502     0  0.000000000E+00  0.000000000E+00  4.129412347E+02  4.129412347E+02  0.000000000E+00  0.00000E+00  9.000E+00
      -1    -1     0     0     0   513  0.000000000E+00  0.000000000E+00 -1.037204570E+02  1.037204570E+02  0.000000000E+00  0.00000E+00  9.000E+00
       6     2     1     2   502     0  7.039512605E+01  6.869662564E+01  2.219023053E+02  2.974883750E+02  1.720000000E+02  0.00000E+00  9.000E+00
      -6     2     1     2     0   512 -6.975061077E+01 -7.017638636E+01  8.840150082E+01  2.172295980E+02  1.720000000E+02  0.00000E+00  9.000E+00
      24     2     3     3     0     0  1.710209391E+00  9.445039152E+01  1.475182635E+02  1.929110236E+02  8.080361197E+01  0.00000E+00  9.000E+00
     -24     2     4     4     0     0 -6.787441538E+01 -9.858405065E+01  2.346564310E+01  1.461680499E+02  8.055253631E+01  0.00000E+00  9.000E+00
     -11     1     5     5     0     0  1.277333429E+01  3.850105017E+01  6.873898408E+00  4.114291449E+01  1.247432800E-06  0.00000E+00  9.000E+00
      12     1     5     5     0     0 -1.106312490E+01  5.594934135E+01  1.406443651E+02  1.517681091E+02  1.907348633E-06  0.00000E+00  9.000E+00
      13     1     6     6     0     0 -1.885852028E+01 -8.851522204E+01  3.078867961E+01  9.559566471E+01  2.545613826E-06  0.00000E+00  9.000E+00
     -14     1     6     6     0     0 -4.901589510E+01 -1.006882861E+01 -7.323036510E+00  5.057238521E+01  1.658252209E-06  0.00000E+00  9.000E+00
       5     1     3     3   502     0  6.868491666E+01 -2.575376589E+01  7.438404188E+01  1.045773514E+02  4.750000000E+00  0.00000E+00  9.000E+00
      -5     1     4     4     0   512 -1.876195391E+00  2.840766429E+01  6.493585772E+01  7.106154809E+01  4.750000000E+00  0.00000E+00  9.000E+00
      21     1     1     2   512   513 -6.445152823E-01  1.479760727E+00 -1.083028415E+00  1.943718680E+00  2.580956828E-08  0.00000E+00  9.000E+00
</event>
<event>
     13  10001  1.00000E+00  1.36227E+01 -1.00000E+00  1.86712E-01
      21    -1     0     0   502   503  0.000000000E+00  0.000000000E+00  2.314855290E+02  2.314855290E+02  0.000000000E+00  0.00000E+00  9.000E+00
      21    -1     0     0   511   504  0.000000000E+00  0.000000000E+00 -5.683302882E+02  5.683302882E+02  0.000000000E+00  0.00000E+00  9.000E+00
       6     2     1     2   502     0  2.025682979E+01  5.257915779E+01 -2.305597220E+02  2.931154932E+02  1.720000000E+02  0.00000E+00  9.000E+00
      -6     2     1     2     0   504 -1.182461507E+01 -4.187982459E+01  1.606934877E+02  2.393744728E+02  1.720000000E+02  0.00000E+00  9.000E+00
      24     2     3     3     0     0 -1.158625552E+01 -3.240343570E+01 -1.468054464E+02  1.695300392E+02  7.748787733E+01  0.00000E+00  9.000E+00
     -24     2     4     4     0     0 -7.169078504E+01 -4.235623946E+01  1.208697351E+02  1.673142268E+02  8.031773121E+01  0.00000E+00  9.000E+00
     -11     1     5     5     0     0 -4.494520617E+01 -1.717380942E+01 -8.323433934E+01  9.614034811E+01  9.536743164E-07  0.00000E+00  9.000E+00
      12     1     5     5     0     0  3.335895065E+01 -1.522962628E+01 -6.357110707E+01  7.338969110E+01  2.336015456E-06  0.00000E+00  9.000E+00
      13     1     6     6     0     0 -1.363201252E+01 -3.959323619E+01  1.144510602E+01  4.341021273E+01  1.105501472E-06  0.00000E+00  9.000E+00
     -14     1     6     6     0     0 -5.805877252E+01 -2.763003269E+00  1.094246291E+02  1.239040141E+02  1.348699152E-06  0.00000E+00  9.000E+00
       5     1     3     3   502     0  3.184308531E+01  8.498259348E+01 -8.375427554E+01  1.235854540E+02  4.750000000E+00  0.00000E+00  9.000E+00
      -5     1     4     4     0   504  5.986616997E+01  4.764148721E-01  3.982375257E+01  7.206024595E+01  4.750000000E+00  0.00000E+00  9.000E+00
      21     1     1     2   511   503 -8.432214715E+00 -1.069933320E+01 -2.669785249E+02  2.673258512E+02  0.000000000E+00  0.00000E+00  9.000E+00
</event>
<event>
     13  10001  1.00000E+00  1.26162E+02 -1.00000E+00  1.21670E-01
      21    -1     0     0   503   512  0.000000000E+00  0.000000000E+00  3.206461190E+02  3.206461190E+02  0.000000000E+00  0.00000E+00  9.000E+00
      21    -1     0     0   502   503  0.000000000E+00  0.000000000E+00 -2.803960192E+02  2.803960192E+02  0.000000000E+00  0.00000E+00  9.000E+00
       6     2     1     2   502     0  5.047431191E+01 -7.311421831E+01 -3.618930032E+01  1.969441813E+02  1.720000000E+02  0.00000E+00  9.000E+00
      -6     2     1     2     0   504 -1.414368268E+02 -1.430758856E+01 -4.650563654E+01  2.279382752E+02  1.720000000E+02  0.00000E+00  9.000E+00
      24     2     3     3     0     0  5.273343454E+01 -4.142949498E+01 -8.811848895E+01  1.358849604E+02  7.875681675E+01  0.00000E+00  9.000E+00
     -24     2     4     4     0     0 -4.783272834E+01 -4.598670548E+01  2.455692683E+01  1.061279960E+02  7.910348857E+01  0.00000E+00  9.000E+00
     -11     1     5     5     0     0 -1.987973201E+01 -1.878218308E+01 -2.192043108E+01  3.504967111E+01  6.743495762E-07  0.00000E+00  9.000E+00
      12     1     5     5     0     0  7.261316655E+01 -2.264731190E+01 -6.619805787E+01  1.008352892E+02  2.336015456E-06  0.00000E+00  9.000E+00
      13     1     6     6     0     0  6.645458326E+00 -1.398232817E+01  3.843729998E+01  4.143782870E+01  4.768371582E-07  0.00000E+00  9.000E+00
     -14     1     6     6     0     0 -5.447818667E+01 -3.200437731E+01 -1.388037316E+01  6.469016733E+01  8.259061849E-07  0.00000E+00  9.000E+00
       5     1     3     3   502     0 -2.259122625E+00 -3.168472333E+01  5.192918863E+01  6.105922092E+01  4.750000000E+00  0.00000E+00  9.000E+00
      -5     1     4     4     0   504 -9.360409846E+01  3.167911692E+01 -7.106256336E+01  1.218102792E+02  4.750000000E+00  0.00000E+00  9.000E+00
      21     1     1     2   504   512  9.096251489E+01  8.742180687E+01  1.229450366E+02  1.761596817E+02  1.907348633E-06  0.00000E+00  9.000E+00
</event>
<event>
     13  10001  1.00000E+00  3.83970E+01 -1.00000E+00  1.49308E-01
      21    -1     0     0   503   511  0.000000000E+00  0.000000000E+00  1.681233753E+02  1.681233753E+02  0.000000000E+00  0.00000E+00  9.000E+00
      21    -1     0     0   502   503  0.000000000E+00  0.000000000E+00 -1.532814969E+03  1.532814969E+03  0.000000000E+00  0.00000E+00  9.000E+00
       6     2     1     2   502     0  2.466333350E+01  2.320504818E+02 -1.245007614E+03  1.278312820E+03  1.720000000E+02  0.00000E+00  9.000E+00
      -6     2     1     2     0   504 -5.954482811E+01 -2.481008629E+02 -1.759850326E+02  3.544775824E+02  1.720000000E+02  0.00000E+00  9.000E+00
      24     2     3     3     0     0  7.165600513E+01  1.640575834E+02 -1.014134362E+03  1.033044871E+03  8.163166467E+01  0.00000E+00  9.000E+00
     -24     2     4     4     0     0 -5.637860517E+01 -1.968561002E+02 -6.010824942E+01  2.276468209E+02  7.924141675E+01  0.00000E+00  9.000E+00
     -11     1     5     5     0     0  1.790686785E+01  1.239244586E+02 -7.580199546E+02  7.682917278E+02  1.525878906E-05  0.00000E+00  9.000E+00
      12     1     5     5     0     0  5.374913728E+01  4.013312479E+01 -2.561144070E+02  2.647531434E+02  3.814697266E-06  0.00000E+00  9.000E+00
      13     1     6     6     0     0 -1.589170864E+01 -6.638901151E+01  1.758583741E+01  7.049332543E+01  1.719260824E-06  0.00000E+00  9.000E+00
     -14     1     6     6     0     0 -4.048689652E+01 -1.304670887E+02 -7.769408683E+01  1.571534955E+02  3.814697266E-06  0.00000E+00  9.000E+00
       5     1     3     3   502     0 -4.699267163E+01  6.799289844E+01 -2.308732524E+02  2.452679486E+02  4.750000000E+00  0.00000E+00  9.000E+00
      -5     1     4     4     0   504 -3.166222945E+00 -5.124476271E+01 -1.158767832E+02  1.268307615E+02  4.750000000E+00  0.00000E+00  9.000E+00
      21     1     1     2   504   511  3.488149461E+01  1.605038103E+01  5.630105321E+01  6.814794193E+01  2.023048729E-06  0.00000E+00  9.000E+00
</event>
<event>
     13  10001  1.00000E+00  2.00353E+01 -1.00000E+00  1.70716E-01
      21    -1     0     0   502   512  0.000000000E+00  0.000000000E+00  1.056010589E+02  1.056010589E+02  0.000000000E+00  0.00000E+00  9.000E+00
      21    -1     0     0   503   504  0.000000000E+00  0.000000000E+00 -1.119775823E+03  1.119775823E+03  0.000000000E+00  0.00000E+00  9.000E+00
       6     2     1     2   502     0 -6.725812183E+01 -2.954974659E+01 -1.535736647E+01  1.876611073E+02  1.720000000E+02  0.00000E+00  9.000E+00
      -6     2     1     2     0   504  7.678219156E+01  4.717653557E+01 -9.989830373E+02  1.017679831E+03  1.720000000E+02  0.00000E+00  9.000E+00
      24     2     3     3     0     0 -3.692203252E+01  1.347122949E+01 -6.844375042E+01  1.127490965E+02  8.051770785E+01  0.00000E+00  9.000E+00
     -24     2     4     4     0     0 -1.552154676E+01 -9.692472921E+00 -5.139368981E+02  5.206422233E+02  8.125470446E+01  0.00000E+00  9.000E+00
     -11     1     5     5     0     0 -4.083815758E+01 -1.786872341E+01 -6.782171207E+01  8.115929410E+01  2.132480600E-06  0.00000E+00  9.000E+00
      12     1     5     5     0     0  3.916125061E+00  3.133995290E+01 -6.220383507E-01  3.158980239E+01  1.160522103E-06  0.00000E+00  9.000E+00
      13     1     6     6     0     0 -1.236632475E+01 -6.699450265E+00 -5.157418354E+02  5.159335707E+02  7.629394531E-06  0.00000E+00  9.000E+00
     -14     1     6     6     0     0 -3.155222011E+00 -2.993022656E+00  1.804937279E+00  4.708652582E+00  8.169859744E-07  0.00000E+00  9.000E+00
       5     1     3     3   502     0 -3.033608931E+01 -4.302097608E+01  5.308638395E+01  7.491201078E+01  4.750000000E+00  0.00000E+00  9.000E+00
      -5     1     4     4     0   504  9.230373832E+01  5.686900850E+01 -4.850461392E+02  4.970376081E+02  4.750000000E+00  0.00000E+00  9.000E+00
      21     1     1     2   503   512 -9.524069727E+00 -1.762678899E+01  1.656394398E-01  2.003594347E+01  1.915357201E-07  0.00000E+00  9.000E+00
</event>
<event>
     13  10001  1.00000E+00  1.26201E+01 -1.00000E+00  1.90259E-01
      -3    -1     0     0     0   511  0.000000000E+00  0.000000000E+00  1.393102193E+02  1.393102193E+02  0.000000000E+00  0.00000E+00  9.000E+00
       3    -1     0     0   502     0  0.000000000E+00  0.000000000E+00 -6.647846471E+02  6.647846471E+02  0.000000000E+00  0.00000E+00  9.000E+00
       6     2     1     2   502     0 -1.889278987E+02  1.853855370E+01 -3.209638456E+02  4.106570577E+02  1.720000000E+02  0.00000E+00  9.000E+00
      -6     2     1     2     0   512  1.763095287E+02 -1.833137485E+01 -2.468851175E+02  3.492239260E+02  1.720000000E+02  0.00000E+00  9.000E+00
      24     2     3     3     0     0 -4.372761472E+01  3.279936377E+01 -6.724656081E+01  1.179430057E+02  8.000343801E+01  0.00000E+00  9.000E+00
     -24     2     4     4     0     0  1.549273818E+02 -4.093364529E+01 -1.141554629E+02  2.128135798E+02  8.111777281E+01  0.00000E+00  9.000E+00
     -11     1     5     5     0     0 -3.069749643E+01 -2.362331988E+01 -3.114834291E+01  4.970529947E+01  5.840038640E-07  0.00000E+00  9.000E+00
      12     1     5     5     0     0 -1.303011829E+01  5.642268364E+01 -3.609821790E+01  6.823770620E+01  1.507891493E-06  0.00000E+00  9.000E+00
      13     1     6     6     0     0  5.708361615E+01 -2.128297425E+01 -9.239333338E+01  1.106708285E+02  2.336015456E-06  0.00000E+00  9.000E+00
     -14     1     6     6     0     0  9.784376570E+01 -1.965067104E+01 -2.176212950E+01  1.021427513E+02  6.307962682E-07  0.00000E+00  9.000E+00
       5     1     3     3   502     0 -1.452002840E+02 -1.426081007E+01 -2.537172848E+02  2.927140521E+02  4.750000000E+00  0.00000E+00  9.000E+00
      -5     1     4     4     0   512  2.138214690E+01  2.260227043E+01 -1.327296546E+02  1.364103462E+02  4.750000000E+00  0.00000E+00  9.000E+00
      21     1     1     2   512   511  1.261836996E+01 -2.071788453E-01  4.237453534E+01  4.421388276E+01  1.348699152E-06  0.00000E+00  9.000E+00
</event>
<event>
     13  10001  1.00000E+00  7.54889E+01 -1.00000E+00  1.32205E-01
      21    -1     0     0   503   504  0.000000000E+00  0.000000000E+00  1.132251662E+02  1.132251662E+02  0.000000000E+00  0.00000E+00  9.000E+00
       2    -1     0     0   502     0  0.000000000E+00  0.000000000E+00 -1.136508998E+03  1.136508998E+03  0.000000000E+00  0.00000E+00  9.000E+00
       6     2     1     2   502     0  1.278660597E+02  1.016865034E+01 -7.705350755E+01  2.279788887E+02  1.720000000E+02  0.00000E+00  9.000E+00
      -6     2     1     2     0   504 -6.540653463E+01  3.222680316E+01 -2.076174289E+02  2.792947876E+02  1.720000000E+02  0.00000E+00  9.000E+00
      24     2     3     3     0     0  5.375819671E+01 -5.629884708E+01 -2.314183657E+01  1.146698673E+02  8.095758128E+01  0.00000E+00  9.000E+00
     -24     2     4     4     0     0  2.986088456E+01  2.824829439E+01 -1.082633666E+02  1.415069003E+02  8.132409072E+01  0.00000E+00  9.000E+00
     -11     1     5     5     0     0  4.573479611E+01 -1.692076862E+01 -4.717153591E+01  6.784642795E+01  6.743495762E-07  0.00000E+00  9.000E+00
      12     1     5     5     0     0  8.023400604E+00 -3.937807846E+01  2.402969934E+01  4.682343933E+01  1.215700987E-06  0.00000E+00  9.000E+00
      13     1     6     6     0     0  5.290504393E+01  2.822568454E+01 -4.742689009E+01  7.645222590E+01  6.743495762E-07  0.00000E+00  9.000E+00
     -14     1     6     6     0     0 -2.304415937E+01  2.260984422E-02 -6.083647647E+01  6.505467441E+01  1.348699152E-06  0.00000E+00  9.000E+00
       5     1     3     3   502     0  7.410786297E+01  6.646749742E+01 -5.391167098E+01  1.133090214E+02  4.750000000E+00  0.00000E+00  9.000E+00
      -5     1     4     4     0   504 -9.526741919E+01  3.978508770E+00 -9.935406234E+01  1.377878873E+02  4.750000000E+00  0.00000E+00  9.000E+00
       2     1     1     2   503     0 -6.245952506E+01 -4.239545350E+01 -7.386128955E+02  7.424604879E+02  1.078959322E-05  0.00000E+00  9.000E+00
</event>
<event>
     13  10001  1.00000E+00  2.75663E+01 -1.00000E+00  1.59476E-01
      -1    -1     0     0     0   512  0.000000000E+00  0.000000000E+00  3.443410184E+02  3.443410184E+02  0.000000000E+00  0.00000E+00  9.000E+00
       1    -1     0     0   511     0  0.000000000E+00  0.000000000E+00 -1.847040504E+02  1.847040504E+02  0.000000000E+00  0.00000E+00  9.000E+00
       6     2     1     2   502     0 -1.418420173E+01 -3.780392756E+01  2.395586098E+02  2.976619829E+02  1.720000000E+02  0.00000E+00  9.000E+00
      -6     2     1     2     0   512  2.201390959E+01  1.137298276E+01 -3.287894981E+01  1.768586506E+02  1.720000000E+02  0.00000E+00  9.000E+00
      24     2     3     3     0     0 -2.862198014E+00  4.307834104E+01  1.014369015E+02  1.371306839E+02  8.155638442E+01  0.00000E+00  9.000E+00
     -24     2     4     4     0     0 -3.046467376E+01  1.226712635E+00 -7.050102930E+01  1.113229209E+02  8.057789029E+01  0.00000E+00  9.000E+00
     -11     1     5     5     0     0 -1.219364351E+01  2.589664615E+01 -4.874850895E+00  2.903593283E+01  7.748603821E-07  0.00000E+00  9.000E+00
      12     1     5     5     0     0  9.331445494E+00  1.718169488E+01  1.063117524E+02  1.080947511E+02  2.336015456E-06  0.00000E+00  9.000E+00
      13     1     6     6     0     0 -5.626587620E+01 -1.054110122E+01 -5.291255897E+01  7.795320736E+01  3.015782986E-06  0.00000E+00  9.000E+00
     -14     1     6     6     0     0  2.580120244E+01  1.176781386E+01 -1.758847033E+01  3.336971350E+01  3.371747881E-07  0.00000E+00  9.000E+00
       5     1     3     3   502     0 -1.132200372E+01 -8.088226860E+01  1.381217083E+02  1.605312990E+02  4.750000000E+00  0.00000E+00  9.000E+00
      -5     1     4     4     0   512  5.247858335E+01  1.014627013E+01  3.762207950E+01  6.553572975E+01  4.750000000E+00  0.00000E+00  9.000E+00
      21     1     1     2   511   502 -7.829707861E+00  2.643094480E+01 -4.704269202E+01  5.452443526E+01  1.348699152E-06  0.00000E+00  9.000E+00
</event>
<event>
     13  10001  1.00000E+00  4.09760E+01 -1.00000E+00  1.47468E-01
      21    -1     0     0   513   512  0.000000000E+00  0.000000000E+00  2.055359775E+02  2.055359775E+02  0.000000000E+00  0.00000E+00  9.000E+00
       1    -1     0     0   502     0  0.000000000E+00  0.000000000E+00 -3.593311838E+02  3.593311838E+02  0.000000000E+00  0.00000E+00  9.000E+00
       6     2     1     2   502     0 -9.383000852E+01  2.393873202E+01 -2.276281841E+02  3.012900987E+02  1.720000000E+02  0.00000E+00  9.000E+00
      -6     2     1     2     0   512  1.234754694E+02  4.348728268E+00  6.632280438E+01  2.219184926E+02  1.720000000E+02  0.00000E+00  9.000E+00
      24     2     3     3     0     0 -4.465518907E+01  7.962788258E+01 -1.571610532E+02  1.987833995E+02  8.050191088E+01  0.00000E+00  9.000E+00
     -24     2     4     4     0     0  8.753288186E+01 -1.459769868E+00  1.060850891E+02  1.677963157E+02  9.611150346E+01  0.00000E+00  9.000E+00
     -11     1     5     5     0     0 -5.201590486E+01  5.590654330E+01 -1.562708129E+02  1.739303392E+02  3.814697266E-06  0.00000E+00  9.000E+00
      12     1     5     5     0     0  7.360715796E+00  2.372133928E+01 -8.902403151E-01  2.485306022E+01  5.606283424E-07  0.00000E+00  9.000E+00
      13     1     6     6     0     0  9.202310582E+01 -3.056675026E+01  9.655636044E+01  1.368419123E+02  3.568322551E-06  0.00000E+00  9.000E+00
     -14     1     6     6     0     0 -4.490223958E+00  2.910698039E+01  9.528728646E+00  3.095440337E+01  1.322094978E-06  0.00000E+00  9.000E+00
       5     1     3     3   502     0 -4.917481946E+01 -5.568915056E+01 -7.046713086E+01  1.025066992E+02  4.750000000E+00  0.00000E+00  9.000E+00
      -5     1     4     4     0   512  3.594258750E+01  5.808498136E+00 -3.976228471E+01  5.412217689E+01  4.750000000E+00  0.00000E+00  9.000E+00
       1     1     1     2   513     0 -2.964546084E+01 -2.828746028E+01  7.510173369E+00  4.165857009E+01  8.596304120E-07  0.00000E+00  9.000E+00
</event>
<event>
     13  10001  1.00000E+00  2.05817E+01 -1.00000E+00  1.69706E-01
      21    -1     0     0   502   503  0.000000000E+00  0.000000000E+00  3.737941073E+02  3.737941073E+02  0.000000000E+00  0.00000E+00  9.000E+00
      21    -1     0     0   511   504  0.000000000E+00  0.000000000E+00 -2.881561660E+02  2.881561660E+02  0.000000000E+00  0.00000E+00  9.000E+00
       6     2     1     2   502     0  1.555807243E+02  6.987920940E+01 -7.770332844E+01  2.543821396E+02  1.720000000E+02  0.00000E+00  9.000E+00
      -6     2     1     2     0   504 -1.361495479E+02 -6.309439140E+01  2.382125900E+02  3.299194442E+02  1.720000000E+02  0.00000E+00  9.000E+00
      24     2     3     3     0     0  1.811893399E+01  5.973452413E+01 -5.130277307E+01  1.139605947E+02  8.036500159E+01  0.00000E+00  9.000E+00
     -24     2     4     4     0     0 -1.596498058E+02 -2.290906402E+01  2.049876906E+02  2.725297317E+02  7.899123801E+01  0.00000E+00  9.000E+00
     -11     1     5     5     0     0  1.914897955E+01 -6.675393762E+00  1.084836145E+01  2.299850529E+01  3.371747881E-07  0.00000E+00  9.000E+00
      12     1     5     5     0     0 -1.030045554E+00  6.640991789E+01 -6.215113452E+01  9.096208941E+01  2.023048729E-06  0.00000E+00  9.000E+00
      13     1     6     6     0     0 -2.603599240E+01  2.635492936E+01  4.671474610E+01  5.962149533E+01  9.536743164E-07  0.00000E+00  9.000E+00
     -14     1     6     6     0     0 -1.336138134E+02 -4.926399338E+01  1.582729445E+02  2.129082364E+02  5.722045898E-06  0.00000E+00  9.000E+00
       5     1     3     3   502     0  1.374617903E+02  1.014468527E+01 -2.640055537E+01  1.404215449E+02  4.750000000E+00  0.00000E+00  9.000E+00
      -5     1     4     4     0   504  2.350025786E+01 -4.018532738E+01  3.322489940E+01  5.738971247E+01  4.750000000E+00  0.00000E+00  9.000E+00
      21     1     1     2   511   503 -1.943117641E+01 -6.784818002E+00 -7.487132026E+01  7.764868943E+01  9.536743164E-07  0.00000E+00  9.000E+00
</event>
<event>
     13  10001  1.00000E+00  4.24747E+01 -1.00000E+00  1.46471E-01
      21    -1     0     0   502   503  0.000000000E+00  0.000000000E+00  3.868051682E+02  3.868051682E+02  0.000000000E+00  0.00000E+00  9.000E+00
      21    -1     0     0   512   504  0.000000000E+00  0.000000000E+00 -1.220746220E+02  1.220746220E+02  0.000000000E+00  0.00000E+00  9.000E+00
       6     2     1     2   502     0  2.948566126E+01 -1.959840709E+01  2.072495752E+02  2.716429425E+02  1.720000000E+02  0.00000E+00  9.000E+00
      -6     2     1     2     0   504 -4.720323903E+01  5.820130164E+01  4.446354688E+01  1.928121995E+02  1.720000000E+02  0.00000E+00  9.000E+00
      24     2     3     3     0     0  1.968304470E+01  5.273350245E+01  1.506766545E+02  1.791710317E+02  7.893389547E+01  0.00000E+00  9.000E+00
     -24     2     4     4     0     0 -2.143756019E+01  7.385785133E+01  8.641592402E+01  1.409319316E+02  8.049562863E+01  0.00000E+00  9.000E+00
     -11     1     5     5     0     0 -1.892024557E+01  4.902894077E+01  5.568338922E+01  7.656665437E+01  0.000000000E+00  0.00000E+00  9.000E+00
      12     1     5     5     0     0  3.860329027E+01  3.704561683E+00  9.499326527E+01  1.026043773E+02  1.348699152E-06  0.00000E+00  9.000E+00
      13     1     6     6     0     0 -8.039001773E+00  2.105972695E+01 -1.411181633E+01  2.659475529E+01  8.085167388E-07  0.00000E+00  9.000E+00
     -14     1     6     6     0     0 -1.339855842E+01  5.279812438E+01  1.005277403E+02  1.143371763E+02  1.348699152E-06  0.00000E+00  9.000E+00
       5     1     3     3   502     0  9.802616558E+00 -7.233190954E+01  5.657292068E+01  9.247191078E+01  4.750000000E+00  0.00000E+00  9.000E+00
      -5     1     4     4     0   504 -2.576567884E+01 -1.565654969E+01 -4.195237713E+01  5.188026794E+01  4.750000000E+00  0.00000E+00  9.000E+00
      21     1     1     2   512   503  1.771757777E+01 -3.860289455E+01  1.301742417E+01  4.442464813E+01  3.769728732E-07  0.00000E+00  9.000E+00
</event>
<event>
     13  10001  1.00000E+00  3.93887E+01 -1.00000E+00  1.48581E-01
      21    -1     0     0   502   503  0.000000000E+00  0.000000000E+00  7.009694823E+02  7.009694823E+02  0.000000000E+00  0.00000E+00  9.000E+00
       1    -1     0     0   503     0  0.000000000E+00  0.000000000E+00 -9.335230384E+01  9.335230384E+01  0.000000000E+00  0.00000E+00  9.000E+00
       6     2     1     2   502     0  1.737522588E+01 -9.575188887E+01  3.062850802E+02  3.645063416E+02  1.720000000E+02  0.00000E+00  9.000E+00
      -6     2     1     2     0   504 -5.662834633E+01  9.901727337E+01  3.241636405E+02  3.842879856E+02  1.720000000E+02  0.00000E+00  9.000E+00
      24     2     3     3     0     0  1.042813241E+01 -6.880001607E+00  5.331926812E+01  9.625135274E+01  7.915363659E+01  0.00000E+00  9.000E+00
     -24     2     4     4     0     0 -1.069933686E+01  1.223019690E+02  2.804514239E+02  3.165755691E+02  8.059058477E+01  0.00000E+00  9.000E+00
     -11     1     5     5     0     0  3.708812766E+01  1.125930949E+01  6.346553346E+00  3.927569226E+01  9.386548846E-07  0.00000E+00  9.000E+00
      12     1     5     5     0     0 -2.665999525E+01 -1.813931110E+01  4.697271477E+01  5.697566048E+01  1.168007728E-06  0.00000E+00  9.000E+00
      13     1     6     6     0     0  1.416582949E+01  8.184336402E+01  1.000816529E+02  1.300590028E+02  4.264961200E-06  0.00000E+00  9.000E+00
     -14     1     6     6     0     0 -2.486516635E+01  4.045860501E+01  1.803697711E+02  1.865165664E+02  0.000000000E+00  0.00000E+00  9.000E+00
       5     1     3     3   502     0  6.947093478E+00 -8.887188726E+01  2.529658121E+02  2.682549888E+02  4.750000000E+00  0.00000E+00  9.000E+00
      -5     1     4     4     0   504 -4.592900947E+01 -2.328469566E+01  4.371221658E+01  6.771241644E+01  4.750000000E+00  0.00000E+00  9.000E+00
       1     1     1     2   504     0  3.925312044E+01 -3.265384505E+00 -2.283154224E+01  4.552745898E+01  5.840038640E-07  0.00000E+00  9.000E+00
</event>
<event>
     13  10001  1.00000E+00  2.74131E+01 -1.00000E+00  1.59659E-01
      21    -1     0     0   503   504  0.000000000E+00  0.000000000E+00  1.261379919E+03  1.261379919E+03  0.000000000E+00  0.00000E+00  9.000E+00
       2    -1     0     0   502     0  0.000000000E+00  0.000000000E+00 -1.274300398E+02  1.274300398E+02  0.000000000E+00  0.00000E+00  9.000E+00
       6     2     1     2   502     0  5.298488001E+01 -8.942603204E+00  9.871785753E+02  1.003490362E+03  1.720000000E+02  0.00000E+00  9.000E+00
      -6     2     1     2     0   504 -2.701243680E+01  1.771238502E+01  2.349570333E+02  2.929713430E+02  1.720000000E+02  0.00000E+00  9.000E+00
      24     2     3     3     0     0  7.920921787E+01  3.083616987E+01  5.488708629E+02  5.625750871E+02  8.947924263E+01  0.00000E+00  9.000E+00
     -24     2     4     4     0     0  3.726436299E+01 -1.111970183E+01  1.874943780E+02  2.078945402E+02  8.095503423E+01  0.00000E+00  9.000E+00
     -11     1     5     5     0     0  6.245103746E+01  7.446962578E+00  1.497870397E+02  1.624553680E+02  3.814697266E-06  0.00000E+00  9.000E+00
      12     1     5     5     0     0  1.675818041E+01  2.338920729E+01  3.990838232E+02  4.001197190E+02  1.078959322E-05  0.00000E+00  9.000E+00
      13     1     6     6     0     0  5.412854931E+01  1.627403804E+01  1.030974231E+02  1.175747542E+02  2.697398305E-06  0.00000E+00  9.000E+00
     -14     1     6     6     0     0 -1.686418633E+01 -2.739373987E+01  8.439695483E+01  9.031978603E+01  2.336015456E-06  0.00000E+00  9.000E+00
       5     1     3     3   502     0 -2.622433786E+01 -3.977877307E+01  4.383077124E+02  4.409152753E+02  4.750000000E+00  0.00000E+00  9.000E+00
      -5     1     4     4     0   504 -6.427679979E+01  2.883208684E+01  4.746265538E+01  8.507680282E+01  4.750000000E+00  0.00000E+00  9.000E+00
       2     1     1     2   503     0 -2.597244321E+01 -8.769781812E+00 -8.818572988E+01  9.234825301E+01  2.336015456E-06  0.00000E+00  9.000E+00
</event>
<event>
     13  10001  1.00000E+00  3.82014E+01 -1.00000E+00  1.49455E-01
       2    -1     0     0   502     0  0.000000000E+00  0.000000000E+00  1.490637413E+02  1.490637413E+02  0.000000000E+00  0.00000E+00  9.000E+00
      -2    -1     0     0     0   511  0.000000000E+00  0.000000000E+00 -3.676969745E+02  3.676969745E+02  0.000000000E+00  0.00000E+00  9.000E+00
       6     2     1     2   502     0  7.318110233E+01 -1.937888244E+01 -4.988510848E+01  1.944313217E+02  1.720000000E+02  0.00000E+00  9.000E+00
      -6     2     1     2     0   512 -8.537545571E+01  5.558171909E+01 -6.254029942E+01  2.094602229E+02  1.720000000E+02  0.00000E+00  9.000E+00
      24     2     3     3     0     0  8.020411691E-01 -5.566128328E+01 -5.352821543E+01  1.132464966E+02  8.282920630E+01  0.00000E+00  9.000E+00
     -24     2     4     4     0     0 -6.993792167E+01  1.041407648E+02 -5.374415503E+01  1.575349590E+02  7.869064305E+01  0.00000E+00  9.000E+00
     -11     1     5     5     0     0  2.933239377E+01 -2.510726258E+01 -5.959068045E+01  7.100572621E+01  1.507891493E-06  0.00000E+00  9.000E+00
      12     1     5     5     0     0 -2.853035260E+01 -3.055402070E+01  6.062465019E+00  4.224077038E+01  5.264139692E-07  0.00000E+00  9.000E+00
      13     1     6     6     0     0 -4.075122120E+01  6.727820951E+01  8.953894676E+00  7.916559691E+01  2.068203875E-06  0.00000E+00  9.000E+00
     -14     1     6     6     0     0 -2.918670047E+01  3.686255533E+01 -6.269804971E+01  7.836936205E+01  9.536743164E-07  0.00000E+00  9.000E+00
       5     1     3     3   502     0  7.237906116E+01  3.628240084E+01  3.643106953E+00  8.118482514E+01  4.750000000E+00  0.00000E+00  9.000E+00
      -5     1     4     4     0   512 -1.543753404E+01 -4.855904575E+01 -8.796144385E+00  5.192526396E+01  4.750000000E+00  0.00000E+00  9.000E+00
      21     1     1     2   512   511  1.219435339E+01 -3.620283664E+01 -1.062078253E+02  1.128691712E+02  1.348699152E-06  0.00000E+00  9.000E+00
</event>
<event>
     13  10001  1.00000E+00  9.00984E+00 -1.00000E+00  2.07728E-01
      -1    -1     0     0     0   513  0.000000000E+00  0.000000000E+00  8.443386439E+01  8.443386439E+01  0.000000000E+00  0.00000E+00  9.000E+00
       1    -1     0     0   502     0  0.000000000E+00  0.000000000E+00 -5.411905973E+02  5.411905973E+02  0.000000000E+00  0.00000E+00  9.000E+00
       6     2     1     2   502     0 -2.719793873E+01  1.111936434E+02 -2.217875373E+02  3.031129590E+02  1.720000000E+02  0.00000E+00  9.000E+00
      -6     2     1     2     0   512  2.505114585E+01 -1.199439816E+02 -2.299011587E+02  3.121740883E+02  1.720000000E+02  0.00000E+00  9.000E+00
      24     2     3     3     0     0  1.235860860E+00  5.661935606E+01 -2.200647527E+02  2.413686128E+02  8.138201905E+01  0.00000E+00  9.000E+00
     -24     2     4     4     0     0  6.506135087E+01 -1.309831255E+02 -1.998212505E+02  2.606955240E+02  8.151113762E+01  0.00000E+00  9.000E+00
     -11     1     5     5     0     0 -3.747242209E+01  1.074459962E+01 -8.040560152E+01  8.935709034E+01  0.000000000E+00  0.00000E+00  9.000E+00
      12     1     5     5     0     0  3.870828295E+01  4.587475644E+01 -1.396591512E+02  1.520115225E+02  0.000000000E+00  0.00000E+00  9.000E+00
      13     1     6     6     0     0  3.362636950E+01 -3.058613448E+00 -2.609615487E+01  4.267431477E+01  1.348699152E-06  0.00000E+00  9.000E+00
     -14     1     6     6     0     0  3.143498137E+01 -1.279245120E+02 -1.737250956E+02  2.180212093E+02  6.031565972E-06  0.00000E+00  9.000E+00
       5     1     3     3   502     0 -2.843379958E+01  5.457428737E+01 -1.722784582E+00  6.174434619E+01  4.750000000E+00  0.00000E+00  9.000E+00
      -5     1     4     4     0   512 -4.001020502E+01  1.103914386E+01 -3.007990820E+01  5.147856428E+01  4.750000000E+00  0.00000E+00  9.000E+00
      21     1     1     2   512   513  2.146792878E+00  8.750338205E+00 -5.068036932E+00  1.033741441E+01  1.685873940E-07  0.00000E+00  9.000E+00
</event>
<event>
     13  10001  1.00000E+00  4.15474E+01 -1.00000E+00  1.47082E-01
      21    -1     0     0   503   504  0.000000000E+00  0.000000000E+00  7.516459249E+01  7.516459249E+01  0.000000000E+00  0.00000E+00  9.000E+00
      21    -1     0     0   502   511  0.000000000E+00  0.000000000E+00 -7.043810248E+02  7.043810248E+02  0.000000000E+00  0.00000E+00  9.000E+00
       6     2     1     2   502     0  3.447666080E+00  9.089457893E+01 -3.668216819E+02  4.152298847E+02  1.720000000E+02  0.00000E+00  9.000E+00
      -6     2     1     2     0   504  3.026877539E+01 -1.151718858E+02 -2.004834167E+02  2.897556944E+02  1.720000000E+02  0.00000E+00  9.000E+00
      24     2     3     3     0     0  4.256516001E+01  5.642242979E+01 -3.416289924E+02  3.571287531E+02  7.638909861E+01  0.00000E+00  9.000E+00
     -24     2     4     4     0     0 -2.824842375E+01 -1.090952568E+02 -1.073590362E+02  1.795018927E+02  8.941598492E+01  0.00000E+00  9.000E+00
     -11     1     5     5     0     0  3.990934562E+01  3.597568054E+00 -7.236101328E+01  8.271526224E+01  1.907348633E-06  0.00000E+00  9.000E+00
      12     1     5     5     0     0  2.655814382E+00  5.282486174E+01 -2.692679791E+02  2.744134908E+02  3.814697266E-06  0.00000E+00  9.000E+00
      13     1     6     6     0     0 -2.342216217E+01 -5.387692669E+01 -1.092466393E+02  1.240409171E+02  1.348699152E-06  0.00000E+00  9.000E+00
     -14     1     6     6     0     0 -4.826261584E+00 -5.521833008E+01  1.887603130E+00  5.546097568E+01  1.812069430E-06  0.00000E+00  9.000E+00
       5     1     3     3   502     0 -3.911749393E+01  3.447214913E+01 -2.519268946E+01  5.810113165E+01  4.750000000E+00  0.00000E+00  9.000E+00
      -5     1     4     4     0   504  5.851719914E+01 -6.076628991E+00 -9.312438056E+01  1.102538016E+02  4.750000000E+00  0.00000E+00  9.000E+00
      21     1     1     2   503   511 -3.371644147E+01  2.427730684E+01 -6.191133369E+01  7.456003817E+01  6.743495762E-07  0.00000E+00  9.000E+00
</event>
<event>
     13  10001  1.00000E+00  1.63434E+02 -1.00000E+00  1.16984E-01
      21    -1     0     0   502   503  0.000000000E+00  0.000000000E+00  4.286995882E+02  4.286995882E+02  0.000000000E+00  0.00000E+00  9.000E+00
       2    -1     0     0   503     0  0.000000000E+00  0.000000000E+00 -3.310618255E+02  3.310618255E+02  0.000000000E+00  0.00000E+00  9.000E+00
       6     2     1     2   502     0 -1.398425752E+02  1.434670672E+01 -8.957061115E+00  2.223195960E+02  1.720000000E+02  0.00000E+00  9.000E+00
      -6     2     1     2     0   504 -2.348262779E+01 -8.373887184E+00  2.603636408E+02  3.130411814E+02  1.720000000E+02  0.00000E+00  9.000E+00
      24     2     3     3     0     0 -3.492986995E+01 -4.761215947E+01  5.274259260E+00  9.955693964E+01  7.997970290E+01  0.00000E+00  9.000E+00
     -24     2     4     4     0     0  4.535791600E+01  1.293454750E+01  1.904729888E+02  2.125407556E+02  8.166376332E+01  0.00000E+00  9.000E+00
     -11     1     5     5     0     0 -2.830757219E+01 -3.133721923E+01  4.155425595E+01  5.924606434E+01  6.743495762E-07  0.00000E+00  9.000E+00
      12     1     5     5     0     0 -6.622297753E+00 -1.627494024E+01 -3.627999669E+01  4.031087530E+01  1.168007728E-06  0.00000E+00  9.000E+00
      13     1     6     6     0     0  7.838940833E+00 -3.355649106E+01  7.454379796E+01  8.212347350E+01  1.651812370E-06  0.00000E+00  9.000E+00
     -14     1     6     6     0     0  3.751897516E+01  4.649103857E+01  1.159291909E+02  1.304172821E+02  1.907348633E-06  0.00000E+00  9.000E+00
       5     1     3     3   502     0 -1.049127053E+02  6.195886618E+01 -1.423132038E+01  1.227626564E+02  4.750000000E+00  0.00000E+00  9.000E+00
      -5     1     4     4     0   504 -6.884054379E+01 -2.130843469E+01  6.989065197E+01  1.005004258E+02  4.750000000E+00  0.00000E+00  9.000E+00
       2     1     1     2   504     0  1.633252030E+02 -5.972819532E+00 -1.537688169E+02  2.244006363E+02  1.907348633E-06  0.00000E+00  9.000E+00
</event>
<event>
     13  10001  1.00000E+00  2.02048E+02 -1.00000E+00  1.13410E-01
      21    -1     0     0   503   504  0.000000000E+00  0.000000000E+00  1.173543947E+03  1.173543947E+03  0.000000000E+00  0.00000E+00  9.000E+00
      21    -1     0     0   511   503  0.000000000E+00  0.000000000E+00 -1.300845392E+02  1.300845392E+02  0.000000000E+00  0.00000E+00  9.000E+00
       6     2     1     2   502     0  4.279533763E+01 -9.189431619E+00  1.607386810E+02  2.394510600E+02  1.720000000E+02  0.00000E+00  9.000E+00
      -6     2     1     2     0   504 -1.858868933E+02 -1.334582648E+02  7.930295657E+02  8.431162065E+02  1.720000000E+02  0.00000E+00  9.000E+00
      24     2     3     3     0     0  9.211294644E+01 -1.101944850E+01  1.389154553E+02  1.852810390E+02  8.015819691E+01  0.00000E+00  9.000E+00
     -24     2     4     4     0     0 -5.577111350E+01 -1.152926275E+01  1.908025085E+02  2.150264130E+02  8.116292289E+01  0.00000E+00  9.000E+00
     -11     1     5     5     0     0  7.138665013E+01  2.016474859E+01  5.184793896E+01  9.050347881E+01  2.939421655E-06  0.00000E+00  9.000E+00
      12     1     5     5     0     0  2.072629631E+01 -3.118419709E+01  8.706751636E+01  9.477756017E+01  1.348699152E-06  0.00000E+00  9.000E+00
      13     1     6     6     0     0  5.386689156E+00 -3.367460281E+01  6.474869785E+01  7.318052451E+01  9.536743164E-07  0.00000E+00  9.000E+00
     -14     1     6     6     0     0 -6.115780266E+01  2.214534006E+01  1.260538106E+02  1.418458885E+02  0.000000000E+00  0.00000E+00  9.000E+00
       5     1     3     3   502     0 -4.931760881E+01  1.830016883E+00  2.182322567E+01  5.417002103E+01  4.750000000E+00  0.00000E+00  9.000E+00
      -5     1     4     4     0   504 -1.301157798E+02 -1.219290020E+02  6.022270573E+02  6.280897935E+02  4.750000000E+00  0.00000E+00  9.000E+00
      21     1     1     2   511   502  1.430915556E+02  1.426476964E+02  8.969116150E+01  2.210612201E+02  3.303624740E-06  0.00000E+00  9.000E+00
</event>
<event>
     13  10001  1.00000E+00  4.25089E+01 -1.00000E+00  1.46449E-01
      21    -1     0     0   503   512  0.000000000E+00  0.000000000E+00  7.658637521E+02  7.658637521E+02  0.000000000E+00  0.00000E+00  9.000E+00
      21    -1     0     0   502   503  0.000000000E+00  0.000000000E+00 -2.930320757E+02  2.930320757E+02  0.000000000E+00  0.00000E+00  9.000E+00
       6     2     1     2   502     0  1.911973282E+01  2.677145979E+02  1.802995161E+02  3.662356968E+02  1.720000000E+02  0.00000E+00  9.000E+00
      -6     2     1     2     0   504 -3.175373488E+01 -3.083025960E+02 -4.064334004E+01  3.567837881E+02  1.720000000E+02  0.00000E+00  9.000E+00
      24     2     3     3     0     0 -3.948488058E+01  2.283352521E+02  1.190949849E+02  2.726740021E+02  8.044534064E+01  0.00000E+00  9.000E+00
     -24     2     4     4     0     0 -7.184515789E+01 -1.171284895E+02 -1.757085638E+01  1.600358194E+02  8.013687499E+01  0.00000E+00  9.000E+00
     -11     1     5     5     0     0 -1.162507922E+01  1.188007074E-01 -3.471986750E+00  1.213306525E+01  6.460989531E-07  0.00000E+00  9.000E+00
      12     1     5     5     0     0 -2.785980136E+01  2.282164514E+02  1.225669717E+02  2.605409368E+02  3.015782986E-06  0.00000E+00  9.000E+00
      13     1     6     6     0     0  1.522529670E+01 -5.200399220E+00  4.048554587E+00  1.659049746E+01  3.264680848E-07  0.00000E+00  9.000E+00
     -14     1     6     6     0     0 -8.707045459E+01 -1.119280903E+02 -2.161941096E+01  1.434453220E+02  3.731841050E-06  0.00000E+00  9.000E+00
       5     1     3     3   502     0  5.860461340E+01  3.937934583E+01  6.120453113E+01  9.356169473E+01  4.750000000E+00  0.00000E+00  9.000E+00
      -5     1     4     4     0   504  4.009142301E+01 -1.911741065E+02 -2.307248366E+01  1.967479687E+02  4.750000000E+00  0.00000E+00  9.000E+00
      21     1     1     2   504   512  1.263400207E+01  4.058799809E+01  3.331755004E+02  3.358763428E+02  3.814697266E-06  0.00000E+00  9.000E+00
</event>
<event>
     13  10001  1.00000E+00  2.30077E+01 -1.00000E+00  1.65648E-01
       2    -1     0     0   502     0  0.000000000E+00  0.000000000E+00  1.750347877E+02  1.750347877E+02  0.000000000E+00  0.00000E+00  9.000E+00
      21    -1     0     0   511   512  0.000000000E+00  0.000000000E+00 -2.745602919E+02  2.745602919E+02  0.000000000E+00  0.00000E+00  9.000E+00
       6     2     1     2   502     0  1.929568316E+01  9.499163984E+01 -8.935946122E+01  2.167137475E+02  1.720000000E+02  0.00000E+00  9.000E+00
      -6     2     1     2     0   512  1.673922311E+00 -1.044589362E+02  1.110360607E+01  2.015484097E+02  1.720000000E+02  0.00000E+00  9.000E+00
      24     2     3     3     0     0  1.182700312E+01  1.222189968E+02 -1.085406214E+02  1.822523262E+02  7.973382422E+01  0.00000E+00  9.000E+00
     -24     2     4     4     0     0 -4.639554687E+01 -1.124884964E+02  3.069965590E+01  1.488064399E+02  7.996673753E+01  0.00000E+00  9.000E+00
     -11     1     5     5     0     0  2.821308709E+01  3.822003121E+01 -7.810847363E+01  9.142036273E+01  0.000000000E+00  0.00000E+00  9.000E+00
      12     1     5     5     0     0 -1.638608397E+01  8.399896559E+01 -3.043214778E+01  9.083196347E+01  2.286830675E-06  0.00000E+00  9.000E+00
      13     1     6     6     0     0  3.213956866E+00 -8.651008188E+01  3.328212783E+01  9.274709601E+01  8.259061849E-07  0.00000E+00  9.000E+00
     -14     1     6     6     0     0 -4.960950374E+01 -2.597841447E+01 -2.582471925E+00  5.605934392E+01  6.426530675E-07  0.00000E+00  9.000E+00
       5     1     3     3   502     0  7.468680041E+00 -2.722735697E+01  1.918116019E+01  3.446142126E+01  4.750000000E+00  0.00000E+00  9.000E+00
      -5     1     4     4     0   512  4.806946918E+01  8.029560122E+00 -1.959604984E+01  5.274196974E+01  4.750000000E+00  0.00000E+00  9.000E+00
       2     1     1     2   511     0 -2.096960547E+01  9.467296390E+00 -2.126964906E+01  3.133292239E+01  4.129530925E-07  0.00000E+00  9.000E+00
</event>
<event>
     13  10001  1.00000E+00  9.26419E+00 -1.00000E+00  2.06159E-01
      21    -1     0     0   502   503  0.000000000E+00  0.000000000E+00  9.099320987E+01  9.099320987E+01  0.000000000E+00  0.00000E+00  9.000E+00
      21    -1     0     0   503   512  0.000000000E+00  0.000000000E+00 -5.907083548E+02  5.907083548E+02  0.000000000E+00  0.00000E+00  9.000E+00
       6     2     1     2   502     0  3.313157622E+01 -7.261354159E+01 -5.794295592E+01  1.982720704E+02  1.720000000E+02  0.00000E+00  9.000E+00
      -6     2     1     2     0   504 -2.647449548E+01  6.617083621E+01 -4.091787692E+02  4.495450407E+02  1.720000000E+02  0.00000E+00  9.000E+00
      24     2     3     3     0     0  2.684987913E+01 -2.992233763E+01  2.683483122E+01  1.030258930E+02  9.098331808E+01  0.00000E+00  9.000E+00
     -24     2     4     4     0     0 -6.196434765E+01 -8.355322008E+00 -2.368762693E+02  2.584314833E+02  8.226221981E+01  0.00000E+00  9.000E+00
     -11     1     5     5     0     0  4.573623237E+01 -5.598116993E+00  4.731327569E+01  6.604307626E+01  2.861022949E-06  0.00000E+00  9.000E+00
      12     1     5     5     0     0 -1.888635324E+01 -2.432422064E+01 -2.047844447E+01  3.698281677E+01  1.066240300E-06  0.00000E+00  9.000E+00
      13     1     6     6     0     0 -5.192184258E+01 -2.035324738E+01 -2.362818293E+02  2.427740416E+02  5.394796609E-06  0.00000E+00  9.000E+00
     -14     1     6     6     0     0 -1.004250507E+01  1.199792537E+01 -5.944400016E-01  1.565744169E+01  1.174524423E-06  0.00000E+00  9.000E+00
       5     1     3     3   502     0  6.281697091E+00 -4.269120396E+01 -8.477778714E+01  9.524617738E+01  4.750000000E+00  0.00000E+00  9.000E+00
      -5     1     4     4     0   504  3.548985218E+01  7.452615822E+01 -1.723024999E+02  1.911135575E+02  4.750000000E+00  0.00000E+00  9.000E+00
      21     1     1     2   504   512 -6.657080742E+00  6.442705380E+00 -3.259341979E+01  3.388445352E+01  4.768371582E-07  0.00000E+00  9.000E+00
</event>
<event>
     13  10001  1.00000E+00  1.83839E+01 -1.00000E+00  1.74033E-01
      -2    -1     0     0     0   511  0.000000000E+00  0.000000000E+00  7.033771297E+01  7.033771297E+01  0.000000000E+00  0.00000E+00  9.000E+00
       2    -1     0     0   502     0  0.000000000E+00  0.000000000E+00 -5.468057687E+02  5.468057687E+02  0.000000000E+00  0.00000E+00  9.000E+00
       6     2     1     2   502     0  5.274175429E+01 -5.386185001E+01 -2.389834468E+02  3.039405853E+02  1.720000000E+02  0.00000E+00  9.000E+00
      -6     2     1     2     0   512 -3.549465832E+01  6.022627827E+01 -2.193967145E+02  2.874125844E+02  1.720000000E+02  0.00000E+00  9.000E+00
      24     2     3     3     0     0  7.796028831E+01  9.546993521E+00 -9.993457930E+01  1.489766993E+02  7.770576016E+01  0.00000E+00  9.000E+00
     -24     2     4     4     0     0 -5.285202034E+01 -2.198159616E+01 -9.653885400E+01  1.384964033E+02  8.114786971E+01  0.00000E+00  9.000E+00
     -11     1     5     5     0     0  1.755854343E+01 -1.442790799E+01 -7.664553762E+01  7.994376407E+01  9.536743164E-07  0.00000E+00  9.000E+00
      12     1     5     5     0     0  6.040174487E+01  2.397490152E+01 -2.328904168E+01  6.903293524E+01  0.000000000E+00  0.00000E+00  9.000E+00
      13     1     6     6     0     0 -5.804538384E+00 -3.808092551E+01 -1.187479400E+01  4.030955577E+01  5.840038640E-07  0.00000E+00  9.000E+00
     -14     1     6     6     0     0 -4.704748196E+01  1.609932935E+01 -8.466406000E+01  9.818684749E+01  1.348699152E-06  0.00000E+00  9.000E+00
       5     1     3     3   502     0 -2.521853402E+01 -6.340884353E+01 -1.390488675E+02  1.549638860E+02  4.750000000E+00  0.00000E+00  9.000E+00
      -5     1     4     4     0   512  1.735736202E+01  8.220787443E+01 -1.228578605E+02  1.489161812E+02  4.750000000E+00  0.00000E+00  9.000E+00
      21     1     1     2   512   511 -1.724709596E+01 -6.364428254E+00 -1.808789444E+01  2.579031197E+01  5.331201500E-07  0.00000E+00  9.000E+00
</event>
<event>
     13  10001  1.00000E+00  1.75867E+01 -1.00000E+00  1.75795E-01
      21    -1     0     0   502   503  0.000000000E+00  0.000000000E+00  1.579174261E+02  1.579174261E+02  0.000000000E+00  0.00000E+00  9.000E+00
      21    -1     0     0   513   504  0.000000000E+00  0.000000000E+00 -4.563159747E+02  4.563159747E+02  0.000000000E+00  0.00000E+00  9.000E+00
       6     2     1     2   502     0 -4.243919099E+01 -1.623383799E+02 -2.314567444E+02  3.336331204E+02  1.720000000E+02  0.00000E+00  9.000E+00
      -6     2     1     2     0   504  3.964175177E+01  1.449756033E+02 -1.861418017E+01  2.291721662E+02  1.720000000E+02  0.00000E+00  9.000E+00
      24     2     3     3     0     0 -8.568396141E+01 -7.313683894E+01 -1.109455816E+02  1.775160876E+02  8.069882794E+01  0.00000E+00  9.000E+00
     -24     2     4     4     0     0  6.201160666E+01  5.107075259E+01  4.731792099E+01  1.121758591E+02  6.237608990E+01  0.00000E+00  9.000E+00
     -11     1     5     5     0     0 -2.817378705E+01  1.607157033E+01 -2.611090612E+01  4.163936921E+01  5.840038640E-07  0.00000E+00  9.000E+00
      12     1     5     5     0     0 -5.751017436E+01 -8.920840927E+01 -8.483467551E+01  1.358767184E+02  1.348699152E-06  0.00000E+00  9.000E+00
      13     1     6     6     0     0  3.496629790E+01  6.243615893E+01  2.697306948E+01  7.647524049E+01  2.261837239E-06  0.00000E+00  9.000E+00
     -14     1     6     6     0     0  2.704530876E+01 -1.136540634E+01  2.034485151E+01  3.570061863E+01  2.384185791E-07  0.00000E+00  9.000E+00
       5     1     3     3   502     0  4.324477042E+01 -8.920154098E+01 -1.205111628E+02  1.561170328E+02  4.750000000E+00  0.00000E+00  9.000E+00
      -5     1     4     4     0   504 -2.236985489E+01  9.390485072E+01 -6.593210117E+01  1.169963070E+02  4.750000000E+00  0.00000E+00  9.000E+00
      21     1     1     2   513   503  2.797439221E+00  1.736277661E+01 -4.832762402E+01  5.142811412E+01  6.743495762E-07  0.00000E+00  9.000E+00
</event>
<event>
     13  10001  1.00000E+00  1.64301E+01 -1.00000E+00  1.78571E-01
      21    -1     0     0   503   511  0.000000000E+00  0.000000000E+00  2.200657749E+02  2.200657749E+02  0.000000000E+00  0.00000E+00  9.000E+00
      21    -1     0     0   502   503  0.000000000E+00  0.000000000E+00 -2.872104311E+02  2.872104311E+02  0.000000000E+00  0.00000E+00  9.000E+00
       6     2     1     2   502     0  9.131880989E+01 -1.199730457E+01  4.547948820E+01  2.003383243E+02  1.720000000E+02  0.00000E+00  9.000E+00
      -6     2     1     2     0   504 -7.613719556E+01  5.714962097E+00 -1.660947050E+02  2.509999689E+02  1.720000000E+02  0.00000E+00  9.000E+00
      24     2     3     3     0     0  6.602346263E+00 -2.277652751E+01  7.225493081E+01  1.107137871E+02  8.046369640E+01  0.00000E+00  9.000E+00
     -24     2     4     4     0     0 -2.973926142E+01 -3.019662935E+01 -8.631087422E+00  8.289356193E+01  7.071482762E+01  0.00000E+00  9.000E+00
     -11     1     5     5     0     0  8.821591671E+00 -5.253513503E+01  5.332685800E+01  7.537582289E+01  0.000000000E+00  0.00000E+00  9.000E+00
      12     1     5     5     0     0 -2.219245408E+00  2.975860752E+01  1.892807281E+01  3.533796418E+01  8.596304120E-07  0.00000E+00  9.000E+00
      13     1     6     6     0     0  7.561243828E+00 -4.036556736E+01 -1.497899605E+01  4.371409108E+01  6.307962682E-07  0.00000E+00  9.000E+00
     -14     1     6     6     0     0 -3.730050525E+01  1.016893800E+01  6.347908630E+00  3.917947085E+01  7.679521279E-07  0.00000E+00  9.000E+00
       5     1     3     3   502     0  8.471646362E+01  1.077922294E+01 -2.677544261E+01  8.962453728E+01  4.750000000E+00  0.00000E+00  9.000E+00
      -5     1     4     4     0   504 -4.639793414E+01  3.591159145E+01 -1.574636176E+02  1.681064069E+02  4.750000000E+00  0.00000E+00  9.000E+00
      21     1     1     2   504   511 -1.518161433E+01  6.282342476E+00  5.347056054E+01  5.593791277E+01  9.536743164E-07  0.00000E+00  9.000E+00
</event>
<event>
     13  10001  1.00000E+00  1.28006E+01 -1.00000E+00  1.89589E-01
      -1    -1     0     0     0   513  0.000000000E+00  0.000000000E+00  7.609115087E+01  7.609115087E+01  0.000000000E+00  0.00000E+00  9.000E+00
       1    -1     0     0   502     0  0.000000000E+00  0.000000000E+00 -7.122678456E+02  7.122678456E+02  0.000000000E+00  0.00000E+00  9.000E+00
       6     2     1     2   502     0  6.946031842E+01  3.568203476E+01 -9.754396279E+01  2.125953154E+02  1.720000000E+02  0.00000E+00  9.000E+00
      -6     2     1     2     0   512 -7.191406356E+01 -2.311882448E+01 -5.220107121E+02  5.547840085E+02  1.720000000E+02  0.00000E+00  9.000E+00
      24     2     3     3     0     0 -9.698291154E+00  6.432439619E+01 -6.778911425E+01  1.231839970E+02  7.966961976E+01  0.00000E+00  9.000E+00
     -24     2     4     4     0     0 -3.247293396E+01  3.707457762E+01 -1.633764156E+02  1.889698898E+02  8.117111753E+01  0.00000E+00  9.000E+00
     -11     1     5     5     0     0 -7.930000673E+00 -1.506295083E+01 -3.165549958E+01  3.594228780E+01  5.840038640E-07  0.00000E+00  9.000E+00
      12     1     5     5     0     0 -1.768290481E+00  7.938734702E+01 -3.613361467E+01  8.724170922E+01  8.259061849E-07  0.00000E+00  9.000E+00
      13     1     6     6     0     0  2.512556874E+01  1.046091901E+01 -2.595803918E+01  3.761043511E+01  8.259061849E-07  0.00000E+00  9.000E+00
     -14     1     6     6     0     0 -5.759850271E+01  2.661365861E+01 -1.374183764E+02  1.513594547E+02  1.907348633E-06  0.00000E+00  9.000E+00
       5     1     3     3   502     0  7.915860957E+01 -2.864236143E+01 -2.975484854E+01  8.941131835E+01  4.750000000E+00  0.00000E+00  9.000E+00
      -5     1     4     4     0   512 -3.944112959E+01 -6.019340210E+01 -3.586342965E+02  3.658141188E+02  4.750000000E+00  0.00000E+00  9.000E+00
      21     1     1     2   512   513  2.453745135E+00 -1.256321028E+01 -1.662201985E+01  2.097967258E+01  2.384185791E-07  0.00000E+00  9.000E+00
</event>
<event>
     13  10001  1.00000E+00  1.43096E+01 -1.00000E+00  1.84501E-01
       2    -1     0     0   502     0  0.000000000E+00  0.000000000E+00  9.737652594E+01  9.737652594E+01  0.000000000E+00  0.00000E+00  9.000E+00
      21    -1     0     0   503   504  0.000000000E+00  0.000000000E+00 -7.460523566E+02  7.460523566E+02  0.000000000E+00  0.00000E+00  9.000E+00
       6     2     1     2   502     0 -4.291575956E+01  2.384819017E+01 -3.453126883E+02  3.888898961E+02  1.720000000E+02  0.00000E+00  9.000E+00
      -6     2     1     2     0   504  3.261810465E+01 -3.378412788E+01 -3.569889203E+02  3.990368369E+02  1.720000000E+02  0.00000E+00  9.000E+00
      24     2     3     3     0     0 -3.039764940E+00  3.288428707E+01 -3.355277428E+02  3.465808704E+02  8.030452680E+01  0.00000E+00  9.000E+00
     -24     2     4     4     0     0  1.485856881E+01 -6.088256345E+01 -1.124337439E+02  1.522990752E+02  8.140146141E+01  0.00000E+00  9.000E+00
     -11     1     5     5     0     0  1.193888892E+01  5.027798651E+00 -2.944633991E+02  2.947482133E+02  0.000000000E+00  0.00000E+00  9.000E+00
      12     1     5     5     0     0 -1.497865386E+01  2.785648842E+01 -4.106434372E+01  5.183265711E+01  4.768371582E-07  0.00000E+00  9.000E+00
      13     1     6     6     0     0  3.683146386E+01 -3.412728242E+00 -6.430307339E+01  7.418280590E+01  9.536743164E-07  0.00000E+00  9.000E+00
     -14     1     6     6     0     0 -2.197289506E+01 -5.746983520E+01 -4.813067055E+01  7.811626926E+01  1.168007728E-06  0.00000E+00  9.000E+00
       5     1     3     3   502     0 -3.987599462E+01 -9.036096906E+00 -9.784945419E+00  4.230902564E+01  4.750000000E+00  0.00000E+00  9.000E+00
      -5     1     4     4     0   504  1.775953585E+01  2.709843556E+01 -2.445551763E+02  2.467377618E+02  4.750000000E+00  0.00000E+00  9.000E+00
       2     1     1     2   503     0  1.029765490E+01  9.935937718E+00  5.362577785E+01  5.550214955E+01  9.536743164E-07  0.00000E+00  9.000E+00
</event>
<event>
     13  10001  1.00000E+00  2.67616E+01 -1.00000E+00  1.60455E-01
       2    -1     0     0   511     0  0.000000000E+00  0.000000000E+00  2.233652435E+03  2.233652435E+03  0.000000000E+00  0.00000E+00  9.000E+00
      -2    -1     0     0     0   512  0.000000000E+00  0.000000000E+00 -5.086989430E+01  5.086989430E+01  0.000000000E+00  0.00000E+00  9.000E+00
       6     2     1     2   502     0 -7.225629397E+01  1.906456744E+02  1.571483405E+03  1.593960739E+03  1.720000000E+02  0.00000E+00  9.000E+00
      -6     2     1     2     0   512  9.706538207E+01 -1.806111386E+02  4.242764249E+02  5.016338869E+02  1.720000000E+02  0.00000E+00  9.000E+00
      24     2     3     3     0     0 -8.254440849E+01  2.034093629E+02  1.232611870E+03  1.254659638E+03  8.154653974E+01  0.00000E+00  9.000E+00
     -24     2     4     4     0     0  8.628813082E+01 -5.559498194E+01  2.884228088E+02  3.166367084E+02  8.083715051E+01  0.00000E+00  9.000E+00
     -11     1     5     5     0     0 -2.297981352E+01  3.767554347E+00  1.911971058E+02  1.926099674E+02  4.672030912E-06  0.00000E+00  9.000E+00
      12     1     5     5     0     0 -5.956459497E+01  1.996418085E+02  1.041414764E+03  1.062049671E+03  2.157918644E-05  0.00000E+00  9.000E+00
      13     1     6     6     0     0  4.708749185E+00  1.919393911E+01  3.744274339E+01  4.233838271E+01  9.536743164E-07  0.00000E+00  9.000E+00
     -14     1     6     6     0     0  8.157938163E+01 -7.478892105E+01  2.509800654E+02  2.742983257E+02  7.629394531E-06  0.00000E+00  9.000E+00
       5     1     3     3   502     0  1.028811452E+01 -1.276368849E+01  3.388715349E+02  3.393011004E+02  4.750000000E+00  0.00000E+00  9.000E+00
      -5     1     4     4     0   512  1.077725125E+01 -1.250161567E+02  1.358536161E+02  1.849971786E+02  4.750000000E+00  0.00000E+00  9.000E+00
      21     1     1     2   511   502 -2.480908810E+01 -1.003453578E+01  1.870227111E+02  1.889277037E+02  3.814697266E-06  0.00000E+00  9.000E+00
</event>
<event>
     13  10001  1.00000E+00  2.36513E+02 -1.00000E+00  1.10898E-01
      21    -1     0     0   503   504  0.000000000E+00  0.000000000E+00  4.122453361E+02  4.122453361E+02  0.000000000E+00  0.00000E+00  9.000E+00
      21    -1     0     0   512   503  0.000000000E+00  0.000000000E+00 -3.712072586E+02  3.712072586E+02  0.000000000E+00  0.00000E+00  9.000E+00
       6     2     1     2   502     0 -1.625014505E+01  7.431320593E+01  1.865044457E+02  2.648668119E+02  1.720000000E+02  0.00000E+00  9.000E+00
      -6     2     1     2     0   504 -1.764064586E+02  6.287871366E+01 -3.206231421E+01  2.562907787E+02  1.720000000E+02  0.00000E+00  9.000E+00
      24     2     3     3     0     0 -4.187251489E+01 -1.962597751E+01  8.987470386E+01  1.276044881E+02  7.789067020E+01  0.00000E+00  9.000E+00
     -24     2     4     4     0     0 -2.119642812E+01  5.060290645E+00  1.624571242E+01  8.369485890E+01  7.915814000E+01  0.00000E+00  9.000E+00
     -11     1     5     5     0     0  2.254444909E+01  1.598359059E+00  1.926417642E+01  2.969706096E+01  4.768371582E-07  0.00000E+00  9.000E+00
      12     1     5     5     0     0 -6.441696398E+01 -2.122433657E+01  7.061052744E+01  9.790742718E+01  2.697398305E-06  0.00000E+00  9.000E+00
      13     1     6     6     0     0 -1.223627412E+01  3.302339598E+01  3.435264806E+01  4.919731207E+01  4.768371582E-07  0.00000E+00  9.000E+00
     -14     1     6     6     0     0 -8.960153995E+00 -2.796310533E+01 -1.810693563E+01  3.449754683E+01  4.129530925E-07  0.00000E+00  9.000E+00
       5     1     3     3   502     0  2.562236984E+01  9.393918343E+01  9.662974183E+01  1.372623238E+02  4.750000000E+00  0.00000E+00  9.000E+00
      -5     1     4     4     0   504 -1.552100305E+02  5.781842301E+01 -4.830802663E+01  1.725959198E+02  4.750000000E+00  0.00000E+00  9.000E+00
      21     1     1     2   512   502  1.926566037E+02 -1.371919196E+02 -1.134040540E+02  2.622950041E+02  3.814697266E-06  0.00000E+00  9.000E+00
</event>
<event>
     13  10001  1.00000E+00  9.33808E+00 -1.00000E+00  2.05716E-01
      21    -1     0     0   511   503  0.000000000E+00  0.000000000E+00  7.276202587E+01  7.276202587E+01  0.000000000E+00  0.00000E+00  9.000E+00
      21    -1     0     0   503   504  0.000000000E+00  0.000000000E+00 -5.411971684E+02  5.411971684E+02  0.000000000E+00  0.00000E+00  9.000E+00
       6     2     1     2   502     0  1.157321727E+01 -8.638350711E+01 -2.439594640E+02  3.109602382E+02  1.720000000E+02  0.00000E+00  9.000E+00
      -6     2     1     2     0   504 -2.625724542E+00  8.905596466E+01 -2.180502577E+02  2.916638033E+02  1.720000000E+02  0.00000E+00  9.000E+00
      24     2     3     3     0     0  6.304651076E+00 -1.159694455E+02 -2.424937113E+02  2.805004865E+02  7.992910606E+01  0.00000E+00  9.000E+00
     -24     2     4     4     0     0 -3.718662059E+01 -1.272091856E+01 -9.066496895E+01  1.249227952E+02  7.642579175E+01  0.00000E+00  9.000E+00
     -11     1     5     5     0     0  1.328411824E+01 -7.925120104E+01 -7.862635092E+01  1.124247469E+02  1.651812370E-06  0.00000E+00  9.000E+00
      12     1     5     5     0     0 -6.979467166E+00 -3.671824450E+01 -1.638673604E+02  1.680757396E+02  1.907348633E-06  0.00000E+00  9.000E+00
      13     1     6     6     0     0 -3.612802189E+01  2.569840771E+01 -3.156271663E+01  5.442285555E+01  8.259061849E-07  0.00000E+00  9.000E+00
     -14     1     6     6     0     0 -1.058598697E+00 -3.841932626E+01 -5.910225232E+01  7.049993965E+01  1.507891493E-06  0.00000E+00  9.000E+00
       5     1     3     3   502     0  5.268566194E+00  2.958593843E+01 -1.465752747E+00  3.045975170E+01  4.750000000E+00  0.00000E+00  9.000E+00
      -5     1     4     4     0   504  3.456089605E+01  1.017768832E+02 -1.273852888E+02  1.667410081E+02  4.750000000E+00  0.00000E+00  9.000E+00
      21     1     1     2   511   502 -8.947492728E+00 -2.672457552E+00 -6.425420735E+00  1.133515272E+01  2.230201594E-07  0.00000E+00  9.000E+00
</event>
<event>
     13  10001  1.00000E+00  1.43153E+00 -1.00000E+00  5.01727E-01
       2    -1     0     0   513     0  0.000000000E+00  0.000000000E+00  1.001709456E+03  1.001709456E+03  0.000000000E+00  0.00000E+00  9.000E+00
      -2    -1     0     0     0   512  0.000000000E+00  0.000000000E+00 -5.268838507E+01  5.268838507E+01  0.000000000E+00  0.00000E+00  9.000E+00
       6     2     1     2   502     0  1.332484983E+02 -4.639108584E+01  4.541897363E+02  5.057465885E+02  1.720000000E+02  0.00000E+00  9.000E+00
      -6     2     1     2     0   512 -1.338668284E+02  4.509998457E+01  4.334642660E+02  4.872674894E+02  1.720000000E+02  0.00000E+00  9.000E+00
      24     2     3     3     0     0  1.220234630E+02 -1.122721376E+01  4.436580376E+02  4.670687072E+02  7.940369724E+01  0.00000E+00  9.000E+00
     -24     2     4     4     0     0  9.008666442E-01  1.717677296E+01  1.343300489E+02  1.579562693E+02  8.130047896E+01  0.00000E+00  9.000E+00
     -11     1     5     5     0     0  7.865516675E+01 -7.473045200E+00  3.902508063E+02  3.981685240E+02  7.629394531E-06  0.00000E+00  9.000E+00
      12     1     5     5     0     0  4.336829628E+01 -3.754168563E+00  5.340723124E+01  6.890018325E+01  2.132480600E-06  0.00000E+00  9.000E+00
      13     1     6     6     0     0  7.082439273E+00  4.255481774E+01  3.591328557E+01  5.613232170E+01  1.430511475E-06  0.00000E+00  9.000E+00
     -14     1     6     6     0     0 -6.181572629E+00 -2.537804479E+01  9.841676331E+01  1.018239476E+02  0.000000000E+00  0.00000E+00  9.000E+00
       5     1     3     3   502     0  1.122503526E+01 -3.516387208E+01  1.053169878E+01  3.867788121E+01  4.750000000E+00  0.00000E+00  9.000E+00
      -5     1     4     4     0   512 -1.347676950E+02  2.792321161E+01  2.991342171E+02  3.293112201E+02  4.750000000E+00  0.00000E+00  9.000E+00
      21     1     1     2   513   502  6.183300919E-01  1.291101272E+00  6.136706894E+01  6.138376353E+01  9.536743164E-07  0.00000E+00  9.000E+00
</event>
<event>
     13  10001  1.00000E+00  1.54569E+01 -1.00000E+00  1.81142E-01
      21    -1     0     0   502   503  0.000000000E+00  0.000000000E+00  3.987403296E+02  3.987403296E+02  0.000000000E+00  0.00000E+00  9.000E+00
      21    -1     0     0   511   504  0.000000000E+00  0.000000000E+00 -1.583063631E+02  1.583063631E+02  0.000000000E+00  0.00000E+00  9.000E+00
       6     2     1     2   502     0  1.633057689E+00  7.144781153E+01 -3.058875093E+01  1.887514989E+02  1.720000000E+02  0.00000E+00  9.000E+00
      -6     2     1     2     0   504 -8.688978218E+00 -5.769532904E+01  2.910041755E+02  3.430330589E+02  1.720000000E+02  0.00000E+00  9.000E+00
      24     2     3     3     0     0 -3.476228730E+01  2.040555972E+01  3.662472160E+01  9.671810280E+01  7.992632664E+01  0.00000E+00  9.000E+00
     -24     2     4     4     0     0  2.353493221E+01 -9.075181854E+01  1.471039802E+02  1.918347104E+02  7.981973125E+01  0.00000E+00  9.000E+00
     -11     1     5     5     0     0  1.293719949E+01 -1.502165787E+01  3.131759630E+01  3.706498582E+01  8.259061849E-07  0.00000E+00  9.000E+00
      12     1     5     5     0     0 -4.769948679E+01  3.542721759E+01  5.307125300E+00  5.965311697E+01  1.286687442E-06  0.00000E+00  9.000E+00
      13     1     6     6     0     0 -6.818582734E+00 -7.209731995E+01  1.367352803E+02  1.547289679E+02  3.814697266E-06  0.00000E+00  9.000E+00
     -14     1     6     6     0     0  3.035351494E+01 -1.865449858E+01  1.036869989E+01  3.710574247E+01  2.920019320E-07  0.00000E+00  9.000E+00
       5     1     3     3   502     0  3.639534499E+01  5.104225182E+01 -6.721347253E+01  9.203339610E+01  4.750000000E+00  0.00000E+00  9.000E+00
      -5     1     4     4     0   504 -3.222391042E+01  3.305648950E+01  1.439001953E+02  1.511983486E+02  4.750000000E+00  0.00000E+00  9.000E+00
      21     1     1     2   511   503  7.055920529E+00 -1.375248249E+01 -1.998145813E+01  2.526213487E+01  2.384185791E-07  0.00000E+00  9.000E+00
</event>
<event>
     13  10001  1.00000E+00  1.21630E+02 -1.00000E+00  1.22363E-01
      21    -1     0     0   503   504  0.000000000E+00  0.000000000E+00  1.137911462E+02  1.137911462E+02  0.000000000E+00  0.00000E+00  9.000E+00
       2    -1     0     0   502     0  0.000000000E+00  0.000000000E+00 -8.033240862E+02  8.033240862E+02  0.000000000E+00  0.00000E+00  9.000E+00
       6     2     1     2   502     0  2.955486041E+01  9.703001640E+01 -2.474412309E+02  3.179614388E+02  1.720000000E+02  0.00000E+00  9.000E+00
      -6     2     1     2     0   504  9.150528506E+01 -8.526531959E+01 -9.793041090E+01  2.341319228E+02  1.720000000E+02  0.00000E+00  9.000E+00
      24     2     3     3     0     0  1.780294158E+01 -9.113648892E+00 -5.988434226E+01  1.020801422E+02  8.021357527E+01  0.00000E+00  9.000E+00
     -24     2     4     4     0     0  4.634030443E+01 -7.541998162E+01  6.894337301E+00  1.194689537E+02  7.993560892E+01  0.00000E+00  9.000E+00
     -11     1     5     5     0     0 -1.308551968E+01 -3.631990489E+01 -4.244819257E+01  5.737782994E+01  4.768371582E-07  0.00000E+00  9.000E+00
      12     1     5     5     0     0  3.088846127E+01  2.720625599E+01 -1.743614969E+01  4.470231225E+01  7.152557373E-07  0.00000E+00  9.000E+00
      13     1     6     6     0     0 -2.137519216E+01 -7.707210807E+00  6.760443901E+00  2.370661385E+01  3.953724850E-07  0.00000E+00  9.000E+00
     -14     1     6     6     0     0  6.771549659E+01 -6.771277081E+01  1.338933995E-01  9.576233987E+01  2.527527109E-06  0.00000E+00  9.000E+00
       5     1     3     3   502     0  1.175191882E+01  1.061436653E+02 -1.875568886E+02  2.158812966E+02  4.750000000E+00  0.00000E+00  9.000E+00
      -5     1     4     4     0   504  4.516498064E+01 -9.845337967E+00 -1.048247482E+02  1.146629691E+02  4.750000000E+00  0.00000E+00  9.000E+00
       2     1     1     2   503     0 -1.210601455E+02 -1.176469681E+01 -3.441612982E+02  3.650218707E+02  0.000000000E+00  0.00000E+00  9.000E+00
</event>
<event>
     13  10001  1.00000E+00  1.86316E+01 -1.00000E+00  1.73508E-01
      21    -1     0     0   503   504  0.000000000E+00  0.000000000E+00  5.448049436E+01  5.448049436E+01  0.000000000E+00  0.00000E+00  9.000E+00
      21    -1     0     0   511   503  0.000000000E+00  0.000000000E+00 -1.659992234E+03  1.659992234E+03  0.000000000E+00  0.00000E+00  9.000E+00
       6     2     1     2   502     0  1.087967584E+02  1.795255992E+02 -4.590741821E+02  5.332909901E+02  1.720000000E+02  0.00000E+00  9.000E+00
      -6     2     1     2     0   504 -1.155184238E+02 -1.621486807E+02 -1.020312964E+03  1.053688401E+03  1.720000000E+02  0.00000E+00  9.000E+00
      24     2     3     3     0     0  1.034918932E+02  5.500596592E+01 -2.920069526E+02  3.248028553E+02  8.057670992E+01  0.00000E+00  9.000E+00
     -24     2     4     4     0     0 -1.108238535E+02 -1.557565486E+02 -1.023193757E+03  1.044005436E+03  8.049755055E+01  0.00000E+00  9.000E+00
     -11     1     5     5     0     0  5.138531351E+01  3.618281379E+00 -4.929980980E+01  7.130226960E+01  9.536743164E-07  0.00000E+00  9.000E+00
      12     1     5     5     0     0  5.210657974E+01  5.138768454E+01 -2.427071428E+02  2.535005857E+02  2.697398305E-06  0.00000E+00  9.000E+00
      13     1     6     6     0     0  1.252689474E+01 -2.044866888E+01 -1.005670901E+02  1.033867050E+02  1.348699152E-06  0.00000E+00  9.000E+00
     -14     1     6     6     0     0 -1.233507482E+02 -1.353078797E+02 -9.226266673E+02  9.406187308E+02  2.412626389E-05  0.00000E+00  9.000E+00
       5     1     3     3   502     0  5.304865191E+00  1.245196333E+02 -1.670672295E+02  2.084881348E+02  4.750000000E+00  0.00000E+00  9.000E+00
      -5     1     4     4     0   504 -4.694570337E+00 -6.392132095E+00  2.880793152E+00  9.682965070E+00  4.750000000E+00  0.00000E+00  9.000E+00
      21     1     1     2   511   502  6.721665358E+00 -1.737691850E+01 -1.261245936E+02  1.274933378E+02  0.000000000E+00  0.00000E+00  9.000E+00
</event>
<event>
     13  10001  1.00000E+00  8.86180E+00 -1.00000E+00  2.08674E-01
      21    -1     0     0   502   503  0.000000000E+00  0.000000000E+00  3.809405002E+02  3.809405002E+02  0.000000000E+00  0.00000E+00  9.000E+00
      21    -1     0     0   503   512  0.000000000E+00  0.000000000E+00 -6.544981350E+02  6.544981350E+02  0.000000000E+00  0.00000E+00  9.000E+00
       6     2     1     2   502     0  3.670385215E+01 -2.646349738E+01  3.454069845E+02  3.885067238E+02  1.720000000E+02  0.00000E+00  9.000E+00
      -6     2     1     2     0   504 -4.238240318E+01  1.966014326E+01 -6.014522107E+02  6.273049905E+02  1.720000000E+02  0.00000E+00  9.000E+00
      24     2     3     3     0     0  7.930504382E+01 -5.521818772E+01  2.699142331E+02  2.970550329E+02  7.777956738E+01  0.00000E+00  9.000E+00
     -24     2     4     4     0     0 -8.913362958E+01 -6.706345060E+00 -4.750047987E+02  4.898554384E+02  7.961791710E+01  0.00000E+00  9.000E+00
     -11     1     5     5     0     0  6.295570416E+01 -2.834674870E+00  9.727905802E+01  1.159080290E+02  1.348699152E-06  0.00000E+00  9.000E+00
      12     1     5     5     0     0  1.634933966E+01 -5.238351285E+01  1.726351750E+02  1.811470038E+02  3.303624740E-06  0.00000E+00  9.000E+00
      13     1     6     6     0     0  6.235507759E+00  8.038060490E+00 -1.618334932E+02  1.621529263E+02  4.264961200E-06  0.00000E+00  9.000E+00
     -14     1     6     6     0     0 -9.536913734E+01 -1.474440555E+01 -3.131713055E+02  3.277025121E+02  0.000000000E+00  0.00000E+00  9.000E+00
       5     1     3     3   502     0 -4.260119167E+01  2.875469034E+01  7.549275144E+01  9.145169090E+01  4.750000000E+00  0.00000E+00  9.000E+00
      -5     1     4     4     0   504  4.675122640E+01  2.636648832E+01 -1.264474120E+02  1.374495521E+02  4.750000000E+00  0.00000E+00  9.000E+00
      21     1     1     2   504   512  5.678551032E+00  6.803354121E+00 -1.751240860E+01  1.962692090E+01  4.129530925E-07  0.00000E+00  9.000E+00
</event>
<event>
     13  10001  1.00000E+00  2.69849E+01 -1.00000E+00  1.60179E-01
      21    -1     0     0   503   504  0.000000000E+00  0.000000000E+00  2.846059977E+02  2.846059977E+02  0.000000000E+00  0.00000E+00  9.000E+00
      21    -1     0     0   511   503  0.000000000E+00  0.000000000E+00 -3.416442110E+02  3.416442110E+02  0.000000000E+00  0.00000E+00  9.000E+00
       6     2     1     2   502     0  1.226613889E+02  1.524420871E+02  1.223409647E+02  2.878119488E+02  1.720000000E+02  0.00000E+00  9.000E+00
      -6     2     1     2     0   504 -1.382728791E+02 -1.304314607E+02 -1.442774107E+02  2.941627548E+02  1.720000000E+02  0.00000E+00  9.000E+00
      24     2     3     3     0     0  9.824160557E+01  2.374072605E+01  5.650164137E+01  1.411226679E+02  8.067302380E+01  0.00000E+00  9.000E+00
     -24     2     4     4     0     0 -6.218122252E+01 -1.391599379E+02 -1.295324205E+02  2.160211925E+02  8.157521017E+01  0.00000E+00  9.000E+00
     -11     1     5     5     0     0  4.053816186E+01 -2.860213513E+01  1.071236159E+01  5.075607739E+01  2.920019320E-07  0.00000E+00  9.000E+00
      12     1     5     5     0     0  5.770344371E+01  5.234286117E+01  4.578927978E+01  9.036659048E+01  1.651812370E-06  0.00000E+00  9.000E+00
      13     1     6     6     0     0 -6.828716545E+01 -8.233410951E+01 -4.998274341E+01  1.180691204E+02  2.023048729E-06  0.00000E+00  9.000E+00
     -14     1     6     6     0     0  6.105942924E+00 -5.682582837E+01 -7.954967708E+01  9.795207212E+01  1.907348633E-06  0.00000E+00  9.000E+00
       5     1     3     3   502     0  2.441978329E+01  1.287013610E+02  6.583932331E+01  1.466892809E+02  4.750000000E+00  0.00000E+00  9.000E+00
      -5     1     4     4     0   504 -7.609165657E+01  8.728477130E+00 -1.474499022E+01  7.814156224E+01  4.750000000E+00  0.00000E+00  9.000E+00
      21     1     1     2   511   502  1.561149023E+01 -2.201062632E+01 -3.510176724E+01  4.427550521E+01  6.743495762E-07  0.00000E+00  9.000E+00
</event>
<event>
     13  10001  1.00000E+00  4.59707E+01 -1.00000E+00  1.44324E-01
      21    -1     0     0   512   503  0.000000000E+00  0.000000000E+00  6.742465954E+02  6.742465954E+02  0.000000000E+00  0.00000E+00  9.000E+00
      21    -1     0     0   503   504  0.000000000E+00  0.000000000E+00 -6.485569157E+01  6.485569157E+01  0.000000000E+00  0.00000E+00  9.000E+00
       6     2     1     2   502     0  2.949886201E+01 -2.140067190E+01  2.332474137E+02  2.920899307E+02  1.720000000E+02  0.00000E+00  9.000E+00
      -6     2     1     2     0   504  4.605156266E+00 -9.425016846E+00  1.954655835E+02  2.605778823E+02  1.720000000E+02  0.00000E+00  9.000E+00
      24     2     3     3     0     0 -4.753286480E+01 -7.457127661E+00  9.798762987E+01  1.357375051E+02  8.067287462E+01  0.00000E+00  9.000E+00
     -24     2     4     4     0     0  5.984882914E+01  1.267416714E+01  7.239417298E+01  1.237956762E+02  7.963627498E+01  0.00000E+00  9.000E+00
     -11     1     5     5     0     0 -2.399153101E+01 -1.855123012E+01 -3.901619370E+00  3.057718648E+01  1.157312860E-06  0.00000E+00  9.000E+00
      12     1     5     5     0     0 -2.354133380E+01  1.109410246E+01  1.018892492E+02  1.051603186E+02  3.015782986E-06  0.00000E+00  9.000E+00
      13     1     6     6     0     0  7.114617626E+00 -3.076315163E+01  2.890798959E+01  4.280959173E+01  7.539457465E-07  0.00000E+00  9.000E+00
     -14     1     6     6     0     0  5.273421152E+01  4.343731876E+01  4.348618338E+01  8.098608443E+01  1.168007728E-06  0.00000E+00  9.000E+00
       5     1     3     3   502     0  7.703172681E+01 -1.394354424E+01  1.352597839E+02  1.563524256E+02  4.750000000E+00  0.00000E+00  9.000E+00
      -5     1     4     4     0   504 -5.524367288E+01 -2.209918398E+01  1.230714105E+02  1.367822061E+02  4.750000000E+00  0.00000E+00  9.000E+00
      21     1     1     2   512   502 -3.410401827E+01  3.082568875E+01  1.806779066E+02  1.864344739E+02  2.697398305E-06  0.00000E+00  9.000E+00
</event>
<event>
     13  10001  1.00000E+00  2.51300E+01 -1.00000E+00  1.62575E-01
       2    -1     0     0   503     0  0.000000000E+00  0.000000000E+00  4.342852859E+02  4.342852859E+02  0.000000000E+00  0.00000E+00  9.000E+00
      21    -1     0     0   502   503  0.000000000E+00  0.000000000E+00 -4.736932933E+02  4.736932933E+02  0.000000000E+00  0.00000E+00  9.000E+00
       6     2     1     2   502     0 -7.535644169E+01 -1.509253816E+01  1.640946085E+02  2.498347825E+02  1.720000000E+02  0.00000E+00  9.000E+00
      -6     2     1     2     0   504  9.666121320E+01  2.842011563E+01 -4.069510215E+02  4.531492326E+02  1.720000000E+02  0.00000E+00  9.000E+00
      24     2     3     3     0     0 -1.187440048E+02 -7.324919156E+00  1.235903424E+02  1.897850147E+02  8.117872868E+01  0.00000E+00  9.000E+00
     -24     2     4     4     0     0  6.109544230E+01 -5.048201629E+01 -2.284085834E+02  2.546789951E+02  8.006136724E+01  0.00000E+00  9.000E+00
     -11     1     5     5     0     0 -7.223072022E+01  2.181098072E+01  2.981585647E+01  8.112940972E+01  1.936921693E-06  0.00000E+00  9.000E+00
      12     1     5     5     0     0 -4.651328453E+01 -2.913589988E+01  9.377448588E+01  1.086556050E+02  2.336015456E-06  0.00000E+00  9.000E+00
      13     1     6     6     0     0  4.164863322E+01 -1.816448098E+01 -3.427437034E+01  5.691475627E+01  6.743495762E-07  0.00000E+00  9.000E+00
     -14     1     6     6     0     0  1.944680907E+01 -3.231753531E+01 -1.941342131E+02  1.977642388E+02  0.000000000E+00  0.00000E+00  9.000E+00
       5     1     3     3   502     0  4.338756306E+01 -7.767619009E+00  4.050426619E+01  6.004976780E+01  4.750000000E+00  0.00000E+00  9.000E+00
      -5     1     4     4     0   504  3.556577091E+01  7.890213192E+01 -1.785424381E+02  1.984702375E+02  4.750000000E+00  0.00000E+00  9.000E+00
       2     1     1     2   504     0 -2.130477151E+01 -1.332757746E+01  2.034484055E+02  2.049945641E+02  2.697398305E-06  0.00000E+00  9.000E+00
</event>
<event>
     13  10001  1.00000E+00  8.40003E+01 -1.00000E+00  1.29862E-01
      21    -1     0     0   503   504  0.000000000E+00  0.000000000E+00  5.391768978E+02  5.391768978E+02  0.000000000E+00  0.00000E+00  9.000E+00
      21    -1     0     0   511   503  0.000000000E+00  0.000000000E+00 -2.261481484E+02  2.261481484E+02  0.000000000E+00  0.00000E+00  9.000E+00
       6     2     1     2   502     0 -1.234042649E+02 -9.961005835E+01 -5.789221051E+01  2.410109632E+02  1.720000000E+02  0.00000E+00  9.000E+00
      -6     2     1     2     0   504  2.002364319E+02  6.565626346E+01  3.385618613E+02  4.342965663E+02  1.720000000E+02  0.00000E+00  9.000E+00
      24     2     3     3     0     0 -7.878549908E+00 -6.658901997E-03 -2.291713247E+01  8.444517317E+01  8.089326744E+01  0.00000E+00  9.000E+00
     -24     2     4     4     0     0  1.017575262E+02  3.120123319E+01  8.103337235E+01  1.563959922E+02  8.102584676E+01  0.00000E+00  9.000E+00
     -11     1     5     5     0     0  1.754073836E+01 -3.299145020E+01 -2.076435397E+01  4.274659851E+01  6.307962682E-07  0.00000E+00  9.000E+00
      12     1     5     5     0     0 -2.541928827E+01  3.298479130E+01 -2.152778501E+00  4.169857466E+01  3.734220292E-07  0.00000E+00  9.000E+00
      13     1     6     6     0     0  6.694796694E+01  4.458461780E+01  8.715926749E+01  1.186025140E+02  0.000000000E+00  0.00000E+00  9.000E+00
     -14     1     6     6     0     0  3.480955929E+01 -1.338338460E+01 -6.125895145E+00  3.779347818E+01  5.960464478E-07  0.00000E+00  9.000E+00
       5     1     3     3   502     0 -1.155257150E+02 -9.960339945E+01 -3.497507804E+01  1.565657900E+02  4.750000000E+00  0.00000E+00  9.000E+00
      -5     1     4     4     0   504  9.847890562E+01  3.445503026E+01  2.575284890E+02  2.779005741E+02  4.750000000E+00  0.00000E+00  9.000E+00
      21     1     1     2   511   502 -7.683216692E+01  3.395379489E+01  3.235909856E+01  9.001751674E+01  2.384185791E-06  0.00000E+00  9.000E+00
</event>
<event>
     13  10001  1.00000E+00  7.34212E+01 -1.00000E+00  1.32828E-01
      21    -1     0     0   502   503  0.000000000E+00  0.000000000E+00  2.879819914E+02  2.879819914E+02  0.000000000E+00  0.00000E+00  9.000E+00
      21    -1     0     0   512   504  0.000000000E+00  0.000000000E+00 -2.181159460E+02  2.181159460E+02  0.000000000E+00  0.00000E+00  9.000E+00
       6     2     1     2   502     0 -1.090673708E+02 -1.973776419E+01  1.300473585E+00  2.046239525E+02  1.720000000E+02  0.00000E+00  9.000E+00
      -6     2     1     2     0   504  1.145700716E+02 -5.347695637E+01  7.836671719E+01  2.274014700E+02  1.720000000E+02  0.00000E+00  9.000E+00
      24     2     3     3     0     0 -9.354467420E+01  4.949396239E+01 -6.695227517E+00  1.330664245E+02  8.038400886E+01  0.00000E+00  9.000E+00
     -24     2     4     4     0     0  4.462752280E+01 -8.316261929E+01  8.595417581E+01  1.508944066E+02  8.045722192E+01  0.00000E+00  9.000E+00
     -11     1     5     5     0     0  1.469416828E+01  5.732271172E+00 -4.056118897E+00  1.628587163E+01  4.951133646E-07  0.00000E+00  9.000E+00
      12     1     5     5     0     0 -1.082388425E+02  4.376169122E+01 -2.639108619E+00  1.167805529E+02  2.885135725E-06  0.00000E+00  9.000E+00
      13     1     6     6     0     0  5.209677626E+01 -2.909419825E+01  7.392553602E+01  9.500279651E+01  1.348699152E-06  0.00000E+00  9.000E+00
     -14     1     6     6     0     0 -7.469253460E+00 -5.406842104E+01  1.202863979E+01  5.589161007E+01  2.384185791E-07  0.00000E+00  9.000E+00
       5     1     3     3   502     0 -1.552269661E+01 -6.923172658E+01  7.995701101E+00  7.155752798E+01  4.750000000E+00  0.00000E+00  9.000E+00
      -5     1     4     4     0   504  6.994254882E+01  2.968566292E+01 -7.587458620E+00  7.650706338E+01  4.750000000E+00  0.00000E+00  9.000E+00
      21     1     1     2   512   503 -5.502700809E+00  7.321472056E+01 -9.801145417E+00  7.407251497E+01  1.272806913E-06  0.00000E+00  9.000E+00
</event>
<event>
     13  10001  1.00000E+00  4.05972E+01 -1.00000E+00  1.47728E-01
       2    -1     0     0   502     0  0.000000000E+00  0.000000000E+00  3.758206899E+02  3.758206899E+02  0.000000000E+00  0.00000E+00  9.000E+00
      21    -1     0     0   503   504  0.000000000E+00  0.000000000E+00 -2.108405091E+02  2.108405091E+02  0.000000000E+00  0.00000E+00  9.000E+00
       6     2     1     2   502     0 -6.127580113E+01  1.501078223E+01 -7.804139413E+01  1.991343933E+02  1.720000000E+02  0.00000E+00  9.000E+00
      -6     2     1     2     0   504  8.319559909E+01  1.916014937E+01  6.166356285E+01  2.016804750E+02  1.720000000E+02  0.00000E+00  9.000E+00
      24     2     3     3     0     0 -1.118804481E+00  3.837668999E+01 -9.644244850E+01  1.318589060E+02  8.131176514E+01  0.00000E+00  9.000E+00
     -24     2     4     4     0     0  1.232769912E+02  1.795668931E+01  6.275436630E+01  1.612859375E+02  8.096532526E+01  0.00000E+00  9.000E+00
     -11     1     5     5     0     0 -3.538808624E+01  5.744606202E-01 -5.811325721E+01  6.804261397E+01  1.348699152E-06  0.00000E+00  9.000E+00
      12     1     5     5     0     0  3.426928176E+01  3.780222937E+01 -3.832919129E+01  6.381629199E+01  0.000000000E+00  0.00000E+00  9.000E+00
      13     1     6     6     0     0  6.058009075E+01  3.778021347E+01  1.487203698E+00  7.141080941E+01  1.402610138E-06  0.00000E+00  9.000E+00
     -14     1     6     6     0     0  6.269690046E+01 -1.982352416E+01  6.126716260E+01  8.987512810E+01  2.236564522E-06  0.00000E+00  9.000E+00
       5     1     3     3   502     0 -6.015699665E+01 -2.336590776E+01  1.840105437E+01  6.727548731E+01  4.750000000E+00  0.00000E+00  9.000E+00
      -5     1     4     4     0   504 -4.008139213E+01  1.203460062E+00 -1.090803447E+00  4.039453754E+01  4.750000000E+00  0.00000E+00  9.000E+00
       2     1     1     2   503     0 -2.191979796E+01 -3.417093160E+01  1.813580120E+02  1.858463307E+02  2.697398305E-06  0.00000E+00  9.000E+00
</event>
<event>
     13  10001  1.00000E+00  5.30489E+01 -1.00000E+00  1.40597E-01
      21    -1     0     0   511   504  0.000000000E+00  0.000000000E+00  6.336346303E+02  6.336346303E+02  0.000000000E+00  0.00000E+00  9.000E+00
      21    -1     0     0   502   503  0.000000000E+00  0.000000000E+00 -1.003910797E+02  1.003910797E+02  0.000000000E+00  0.00000E+00  9.000E+00
       6     2     1     2   502     0  7.150689186E+01  5.206675448E+01  2.938779783E+02  3.518130876E+02  1.720000000E+02  0.00000E+00  9.000E+00
      -6     2     1     2     0   504 -2.955726611E+01 -8.453858557E+01  7.235190039E+01  2.069763318E+02  1.720000000E+02  0.00000E+00  9.000E+00
      24     2     3     3     0     0  4.904869764E+01 -3.133432406E+01  1.185862206E+02  1.563396286E+02  8.361682329E+01  0.00000E+00  9.000E+00
     -24     2     4     4     0     0 -3.812830892E+01 -1.106251299E+02  9.534957344E+01  1.708456518E+02  8.003129566E+01  0.00000E+00  9.000E+00
     -11     1     5     5     0     0 -4.358976176E-01  1.640425968E+01 -2.977289840E+00  1.667794943E+01  8.397700073E-07  0.00000E+00  9.000E+00
      12     1     5     5     0     0  4.948459526E+01 -4.773858374E+01  1.215635104E+02  1.396616791E+02  3.568322551E-06  0.00000E+00  9.000E+00
      13     1     6     6     0     0  1.311769795E+00 -6.238517308E+01  7.080822032E+00  6.279943154E+01  7.679521279E-07  0.00000E+00  9.000E+00
     -14     1     6     6     0     0 -3.944007872E+01 -4.823995682E+01  8.826875140E+01  1.080462203E+02  9.536743164E-07  0.00000E+00  9.000E+00
       5     1     3     3   502     0  2.245819422E+01  8.340107853E+01  1.752917577E+02  1.954734591E+02  4.750000000E+00  0.00000E+00  9.000E+00
      -5     1     4     4     0   504  8.571042817E+00  2.608654433E+01 -2.299767304E+01  3.613067997E+01  4.750000000E+00  0.00000E+00  9.000E+00
      21     1     1     2   511   503 -4.194962575E+01  3.247183110E+01  1.670136719E+02  1.752362906E+02  3.814697266E-06  0.00000E+00  9.000E+00
</event>
<event>
     13  10001  1.00000E+00  4.51776E+01 -1.00000E+00  1.44791E-01
      21    -1     0     0   512   503  0.000000000E+00  0.000000000E+00  3.556919694E+02  3.556919694E+02  0.000000000E+00  0.00000E+00  9.000E+00
      21    -1     0     0   503   504  0.000000000E+00  0.000000000E+00 -3.365048398E+02  3.365048398E+02  0.000000000E+00  0.00000E+00  9.000E+00
       6     2     1     2   502     0 -8.089444249E+01  1.256684740E+02 -1.319724689E+02  2.633195943E+02  1.720000000E+02  0.00000E+00  9.000E+00
      -6     2     1     2     0   504  1.183671930E+02 -1.509035254E+02 -1.365890826E+01  2.579791312E+02  1.720000000E+02  0.00000E+00  9.000E+00
      24     2     3     3     0     0 -7.130529374E+01  1.591221445E+02 -1.045211434E+02  2.187411509E+02  8.073858985E+01  0.00000E+00  9.000E+00
     -24     2     4     4     0     0  5.883282028E+01 -2.014844999E+01  2.238197647E+01  1.097808210E+02  8.765623199E+01  0.00000E+00  9.000E+00
     -11     1     5     5     0     0 -6.013716713E+01  1.575185116E+02 -1.143920022E+02  2.037500688E+02  0.000000000E+00  0.00000E+00  9.000E+00
      12     1     5     5     0     0 -1.116812661E+01  1.603632856E+00  9.870858732E+00  1.499108210E+01  5.591411304E-07  0.00000E+00  9.000E+00
      13     1     6     6     0     0  6.435453327E+01 -4.710871451E+01  1.368825168E+01  8.092036313E+01  1.800020799E-06  0.00000E+00  9.000E+00
     -14     1     6     6     0     0 -5.521712986E+00  2.696026452E+01  8.693724792E+00  2.886045786E+01  1.521962325E-06  0.00000E+00  9.000E+00
       5     1     3     3   502     0 -9.589148752E+00 -3.345367050E+01 -2.745132544E+01  4.457844336E+01  4.750000000E+00  0.00000E+00  9.000E+00
      -5     1     4     4     0   504  5.953437272E+01 -1.307550754E+02 -3.604088473E+01  1.481983102E+02  4.750000000E+00  0.00000E+00  9.000E+00
      21     1     1     2   512   502 -3.747275050E+01  2.523505135E+01  1.648185068E+02  1.708980837E+02  1.907348633E-06  0.00000E+00  9.000E+00
</event>
<event>
     13  10001  1.00000E+00  3.23137E+01 -1.00000E+00  1.54428E-01
      21    -1     0     0   503   511  0.000000000E+00  0.000000000E+00  1.834687829E+02  1.834687829E+02  0.000000000E+00  0.00000E+00  9.000E+00
      21    -1     0     0   502   503  0.000000000E+00  0.000000000E+00 -5.961676594E+02  5.961676594E+02  0.000000000E+00  0.00000E+00  9.000E+00
       6     2     1     2   502     0 -4.394164971E+01  1.050710517E+02 -1.731507787E+02  2.693250576E+02  1.720000000E+02  0.00000E+00  9.000E+00
      -6     2     1     2     0   504  4.037277191E+01 -1.371870211E+02 -3.387730190E+02  4.059573843E+02  1.720000000E+02  0.00000E+00  9.000E+00
      24     2     3     3     0     0 -5.882910856E+01  8.513580029E+00 -5.386958722E+01  1.150670046E+02  8.249326074E+01  0.00000E+00  9.000E+00
     -24     2     4     4     0     0  3.181330713E+01 -1.150493660E+02 -1.246255935E+02  1.904463114E+02  8.055939315E+01  0.00000E+00  9.000E+00
     -11     1     5     5     0     0 -3.464748267E+01 -1.380461665E+00 -7.423896333E+01  8.193764340E+01  1.651812370E-06  0.00000E+00  9.000E+00
      12     1     5     5     0     0 -2.418162589E+01  9.894041694E+00  2.036937611E+01  3.312936123E+01  7.907449699E-07  0.00000E+00  9.000E+00
      13     1     6     6     0     0  5.771754570E+01 -6.276812189E+01 -6.705239769E+01  1.084766161E+02  2.336015456E-06  0.00000E+00  9.000E+00
     -14     1     6     6     0     0 -2.590423857E+01 -5.228124413E+01 -5.757319580E+01  8.196969524E+01  1.507891493E-06  0.00000E+00  9.000E+00
       5     1     3     3   502     0  1.488745885E+01  9.655747162E+01 -1.192811915E+02  1.542580530E+02  4.750000000E+00  0.00000E+00  9.000E+00
      -5     1     4     4     0   504  8.559464781E+00 -2.213765509E+01 -2.141474255E+02  2.155110730E+02  4.750000000E+00  0.00000E+00  9.000E+00
      21     1     1     2   504   511  3.568877795E+00  3.211596946E+01  9.922492129E+01  1.043540003E+02  1.348699152E-06  0.00000E+00  9.000E+00
</event>
<event>
     13  10001  1.00000E+00  9.02367E+01 -1.00000E+00  1.28339E-01
      21    -1     0     0   513   512  0.000000000E+00  0.000000000E+00  1.062411395E+02  1.062411395E+02  0.000000000E+00  0.00000E+00  9.000E+00
       2    -1     0     0   502     0  0.000000000E+00  0.000000000E+00 -1.091825269E+03  1.091825269E+03  0.000000000E+00  0.00000E+00  9.000E+00
       6     2     1     2   502     0 -6.481844414E+01  6.387756719E+00 -3.034764872E+02  3.548580172E+02  1.720000000E+02  0.00000E+00  9.000E+00
      -6     2     1     2     0   512  9.936153655E+01 -8.975106860E+01 -7.147508501E+02  7.472487852E+02  1.720000000E+02  0.00000E+00  9.000E+00
      24     2     3     3     0     0  7.246218504E+00  4.090970927E+01 -2.260900979E+02  2.435193602E+02  8.036687396E+01  0.00000E+00  9.000E+00
     -24     2     4     4     0     0  8.213885469E+00 -1.585592228E+01 -1.508242806E+02  1.712243714E+02  7.906290895E+01  0.00000E+00  9.000E+00
     -11     1     5     5     0     0  9.888653857E+00  7.960544360E+00  2.169522966E+00  1.287876436E+01  4.150983178E-07  0.00000E+00  9.000E+00
      12     1     5     5     0     0 -2.642435353E+00  3.294916491E+01 -2.282596208E+02  2.306405958E+02  5.394796609E-06  0.00000E+00  9.000E+00
      13     1     6     6     0     0  4.217910965E+01 -5.569422559E+00 -1.047984391E+02  1.131052987E+02  1.348699152E-06  0.00000E+00  9.000E+00
     -14     1     6     6     0     0 -3.396522418E+01 -1.028649972E+01 -4.602584149E+01  5.811907273E+01  6.743495762E-07  0.00000E+00  9.000E+00
       5     1     3     3   502     0 -7.206466264E+01 -3.452195255E+01 -7.738638930E+01  1.113386571E+02  4.750000000E+00  0.00000E+00  9.000E+00
      -5     1     4     4     0   512  9.114765109E+01 -7.389514632E+01 -5.639265695E+02  5.760244138E+02  4.750000000E+00  0.00000E+00  9.000E+00
       2     1     1     2   513     0 -3.454309242E+01  8.336331188E+01  3.264320773E+01  9.595960615E+01  1.907348633E-06  0.00000E+00  9.000E+00
</event>
<event>
     13  10001  1.00000E+00  9.91413E+01 -1.00000E+00  1.26391E-01
      21    -1     0     0   503   511  0.000000000E+00  0.000000000E+00  4.502407111E+02  4.502407111E+02  0.000000000E+00  0.00000E+00  9.000E+00
      21    -1     0     0   502   503  0.000000000E+00  0.000000000E+00 -3.684330381E+02  3.684330381E+02  0.000000000E+00  0.00000E+00  9.000E+00
       6     2     1     2   502     0 -4.651855065E+01  1.633601757E+02  8.247594942E+01  2.554149659E+02  1.720000000E+02  0.00000E+00  9.000E+00
      -6     2     1     2     0   504  1.083129410E+02 -8.583307300E+01 -2.267567243E+02  3.163884031E+02  1.720000000E+02  0.00000E+00  9.000E+00
      24     2     3     3     0     0  1.814868003E+01  5.859071461E+01 -1.369959486E+01  9.911145178E+01  7.663650924E+01  0.00000E+00  9.000E+00
     -24     2     4     4     0     0 -8.717573322E+00  5.397317587E+00 -2.025259407E+01  6.205467795E+01  5.775368705E+01  0.00000E+00  9.000E+00
     -11     1     5     5     0     0 -3.003463036E+01  2.815080530E+01 -5.429114233E+00  4.152134560E+01  9.573923590E-07  0.00000E+00  9.000E+00
      12     1     5     5     0     0  4.818331039E+01  3.043990932E+01 -8.270480627E+00  5.759010617E+01  1.066240300E-06  0.00000E+00  9.000E+00
      13     1     6     6     0     0 -7.423136858E+00 -1.726038751E+01  1.223782546E+01  2.242294159E+01  4.768371582E-07  0.00000E+00  9.000E+00
     -14     1     6     6     0     0 -1.294436464E+00  2.265770509E+01 -3.249041953E+01  3.963173636E+01  8.259061849E-07  0.00000E+00  9.000E+00
       5     1     3     3   502     0 -6.466723069E+01  1.047694611E+02  9.617554428E+01  1.563035141E+02  4.750000000E+00  0.00000E+00  9.000E+00
      -5     1     4     4     0   504  1.170305144E+02 -9.123039058E+01 -2.065041302E+02  2.543337251E+02  4.750000000E+00  0.00000E+00  9.000E+00
      21     1     1     2   504   511 -6.179439038E+01 -7.752710271E+01  2.260884479E+02  2.468703802E+02  2.697398305E-06  0.00000E+00  9.000E+00
</event>
<event>
     13  10001  1.00000E+00  1.93155E+01 -1.00000E+00  1.72111E-01
      21    -1     0     0   502   503  0.000000000E+00  0.000000000E+00  3.628410811E+02  3.628410811E+02  0.000000000E+00  0.00000E+00  9.000E+00
      21    -1     0     0   512   504  0.000000000E+00  0.000000000E+00 -1.579273237E+02  1.579273237E+02  0.000000000E+00  0.00000E+00  9.000E+00
       6     2     1     2   502     0  3.416473074E+01  1.647670804E+01  2.625842517E+02  3.161853886E+02  1.720000000E+02  0.00000E+00  9.000E+00
      -6     2     1     2     0   504 -2.559829324E+01  8.352672905E-01 -4.007438701E+01  1.784542708E+02  1.720000000E+02  0.00000E+00  9.000E+00
      24     2     3     3     0     0  1.731950455E+01 -5.740634071E+01  1.368534683E+02  1.693070072E+02  7.962749340E+01  0.00000E+00  9.000E+00
     -24     2     4     4     0     0  3.196663194E+01 -2.238862190E+01 -6.753487494E+01  1.104122945E+02  7.814601401E+01  0.00000E+00  9.000E+00
     -11     1     5     5     0     0 -1.357034587E+01 -2.878323495E+01  6.712617882E+00  3.252211771E+01  8.920806376E-07  0.00000E+00  9.000E+00
      12     1     5     5     0     0  3.088985042E+01 -2.862310576E+01  1.301408504E+02  1.367848895E+02  3.814697266E-06  0.00000E+00  9.000E+00
      13     1     6     6     0     0 -1.649220541E+01 -3.285673583E+01 -3.714867780E+01  5.226454048E+01  6.743495762E-07  0.00000E+00  9.000E+00
     -14     1     6     6     0     0  4.845883735E+01  1.046811393E+01 -3.038619714E+01  5.814775407E+01  7.539457465E-07  0.00000E+00  9.000E+00
       5     1     3     3   502     0  1.684522619E+01  7.388304875E+01  1.257307834E+02  1.468783814E+02  4.750000000E+00  0.00000E+00  9.000E+00
      -5     1     4     4     0   504 -5.756492519E+01  2.322388919E+01  2.746048793E+01  6.804197630E+01  4.750000000E+00  0.00000E+00  9.000E+00
      21     1     1     2   512   503 -8.566437497E+00 -1.731197533E+01 -1.759610729E+01  2.612874534E+01  0.000000000E+00  0.00000E+00  9.000E+00
</event>
<event>
     13  10001  1.00000E+00  1.23873E+01 -1.00000E+00  1.91144E-01
      21    -1     0     0   502   503  0.000000000E+00  0.000000000E+00  8.914965660E+01  8.914965660E+01  0.000000000E+00  0.00000E+00  9.000E+00
      21    -1     0     0   503   511  0.000000000E+00  0.000000000E+00 -6.900440508E+02  6.900440508E+02  0.000000000E+00  0.00000E+00  9.000E+00
       6     2     1     2   502     0  5.074872400E+00  6.917929514E+01 -5.172492314E+01  1.925382998E+02  1.720000000E+02  0.00000E+00  9.000E+00
      -6     2     1     2     0   504  7.192074781E+00 -6.745657828E+01 -4.468933948E+02  4.836319077E+02  1.720000000E+02  0.00000E+00  9.000E+00
      24     2     3     3     0     0  6.662093924E+01  4.909905884E+01 -5.391721997E+01  1.275882967E+02  8.076286102E+01  0.00000E+00  9.000E+00
     -24     2     4     4     0     0 -5.999841660E+01 -1.325874618E+01 -2.867518574E+02  3.016433322E+02  7.061492613E+01  0.00000E+00  9.000E+00
     -11     1     5     5     0     0  2.324861705E+01  2.517724829E+01  1.919381027E+01  3.927842129E+01  9.536743164E-07  0.00000E+00  9.000E+00
      12     1     5     5     0     0  4.337232220E+01  2.392181056E+01 -7.311103024E+01  8.830987541E+01  1.348699152E-06  0.00000E+00  9.000E+00
      13     1     6     6     0     0  1.003951537E+01 -2.086631457E+01 -7.118174536E+01  7.485342895E+01  2.336015456E-06  0.00000E+00  9.000E+00
     -14     1     6     6     0     0 -7.003793198E+01  7.607568383E+00 -2.155701120E+02  2.267899032E+02  2.697398305E-06  0.00000E+00  9.000E+00
       5     1     3     3   502     0 -6.154606684E+01  2.008023629E+01  2.192296831E+00  6.495000307E+01  4.750000000E+00  0.00000E+00  9.000E+00
      -5     1     4     4     0   504  6.719049138E+01 -5.419783210E+01 -1.601415374E+02  1.819885756E+02  4.750000000E+00  0.00000E+00  9.000E+00
      21     1     1     2   504   511 -1.226694718E+01 -1.722716861E+00 -1.022760763E+02  1.030234999E+02  1.348699152E-06  0.00000E+00  9.000E+00
</event>
<event>
     13  10001  1.00000E+00  1.07485E+01 -1.00000E+00  1.98183E-01
      21    -1     0     0   503   504  0.000000000E+00  0.000000000E+00  5.398297871E+01  5.398297871E+01  0.000000000E+00  0.00000E+00  9.000E+00
      21    -1     0     0   502   512  0.000000000E+00  0.000000000E+00 -6.891530373E+02  6.891530373E+02  0.000000000E+00  0.00000E+00  9.000E+00
       6     2     1     2   502     0 -1.485757758E+01  4.440736635E+01 -3.804121828E+02  4.201073561E+02  1.720000000E+02  0.00000E+00  9.000E+00
      -6     2     1     2     0   504  5.145949123E+00 -4.901328876E+01 -2.048918413E+02  2.720173706E+02  1.720000000E+02  0.00000E+00  9.000E+00
      24     2     3     3     0     0  4.723946671E+01  2.390346449E+01 -3.073539198E+02  3.219415514E+02  7.985604373E+01  0.00000E+00  9.000E+00
     -24     2     4     4     0     0 -4.981390888E+01  2.360055021E+01 -1.378198955E+02  1.588159394E+02  5.647802700E+01  0.00000E+00  9.000E+00
     -11     1     5     5     0     0  8.964407474E+00 -9.348737821E+00 -2.240296292E+02  2.244037305E+02  3.814697266E-06  0.00000E+00  9.000E+00
      12     1     5     5     0     0  3.827505924E+01  3.325220231E+01 -8.332429058E+01  9.753782097E+01  1.907348633E-06  0.00000E+00  9.000E+00
      13     1     6     6     0     0  1.232106100E+01  8.494946033E+00 -2.705157465E+01  3.091537390E+01  5.840038640E-07  0.00000E+00  9.000E+00
     -14     1     6     6     0     0 -6.213496988E+01  1.510560418E+01 -1.107683209E+02  1.279005655E+02  2.336015456E-06  0.00000E+00  9.000E+00
       5     1     3     3   502     0 -6.209704429E+01  2.050390186E+01 -7.305826307E+01  9.816580466E+01  4.750000000E+00  0.00000E+00  9.000E+00
      -5     1     4     4     0   504  5.495985800E+01 -7.261383898E+01 -6.707194583E+01  1.132014312E+02  4.750000000E+00  0.00000E+00  9.000E+00
      21     1     1     2   503   512  9.711628456E+00  4.605922414E+00 -4.986603438E+01  5.101128928E+01  0.000000000E+00  0.00000E+00  9.000E+00
</event>
<event>
     13  10001  1.00000E+00  1.35205E+01 -1.00000E+00  1.87055E-01
      21    -1     0     0   502   503  0.000000000E+00  0.000000000E+00  7.395208747E+02  7.395208747E+02  0.000000000E+00  0.00000E+00  9.000E+00
      21    -1     0     0   503   511  0.000000000E+00  0.000000000E+00 -3.221561198E+02  3.221561198E+02  0.000000000E+00  0.00000E+00  9.000E+00
       6     2     1     2   502     0 -6.077913720E+01 -2.420916471E+01  6.314140319E+01  1.945533962E+02  1.720000000E+02  0.00000E+00  9.000E+00
      -6     2     1     2     0   504  5.449759928E+01  3.618188498E+01  5.966177827E+02  6.243523811E+02  1.720000000E+02  0.00000E+00  9.000E+00
      24     2     3     3     0     0 -8.222169731E+01 -3.170708009E+01 -6.056661249E+00  1.215675295E+02  8.352385670E+01  0.00000E+00  9.000E+00
     -24     2     4     4     0     0  1.005476544E+02  8.164802251E+00  3.791951907E+02  4.002972305E+02  7.919839183E+01  0.00000E+00  9.000E+00
     -11     1     5     5     0     0  7.181592385E+00  4.957699595E+00  1.971527878E+01  2.156029387E+01  6.307962682E-07  0.00000E+00  9.000E+00
      12     1     5     5     0     0 -8.940328970E+01 -3.666477969E+01 -2.577194003E+01  1.000072356E+02  3.724217260E-06  0.00000E+00  9.000E+00
      13     1     6     6     0     0  3.640412876E+01 -1.428080833E+01  4.661653048E+01  6.084655283E+01  1.507891493E-06  0.00000E+00  9.000E+00
     -14     1     6     6     0     0  6.414352566E+01  2.244561058E+01  3.325786602E+02  3.394506777E+02  6.607249480E-06  0.00000E+00  9.000E+00
       5     1     3     3   502     0  2.144256011E+01  7.497915389E+00  6.919806444E+01  7.298586673E+01  4.750000000E+00  0.00000E+00  9.000E+00
      -5     1     4     4     0   504 -4.605005514E+01  2.801708273E+01  2.174225920E+02  2.240551506E+02  4.750000000E+00  0.00000E+00  9.000E+00
      21     1     1     2   504   511  6.281537917E+00 -1.197272028E+01 -2.423944309E+02  2.427712172E+02  0.000000000E+00  0.00000E+00  9.000E+00
</event>
<event>
     13  10001  1.00000E+00  2.63436E+01 -1.00000E+00  1.60980E-01
      21    -1     0     0   503   512  0.000000000E+00  0.000000000E+00  2.123474423E+02  2.123474423E+02  0.000000000E+00  0.00000E+00  9.000E+00
      21    -1     0     0   502   503  0.000000000E+00  0.000000000E+00 -1.915885761E+02  1.915885761E+02  0.000000000E+00  0.00000E+00  9.000E+00
       6     2     1     2   502     0  5.501305011E+01 -4.619262794E+01  2.561292024E+01  1.881494519E+02  1.720000000E+02  0.00000E+00  9.000E+00
      -6     2     1     2     0   504 -6.225445212E+01  2.086379614E+01 -2.034405402E+01  1.852263354E+02  1.720000000E+02  0.00000E+00  9.000E+00
      24     2     3     3     0     0 -2.104448010E+01 -2.218547054E+01  5.556039110E+01  1.028235764E+02  8.093618207E+01  0.00000E+00  9.000E+00
     -24     2     4     4     0     0 -1.016530185E+02  3.989262263E+01  1.736850427E+00  1.359874066E+02  8.102345694E+01  0.00000E+00  9.000E+00
     -11     1     5     5     0     0 -3.752731548E+01 -1.759744398E+01 -3.249344049E+00  4.157556588E+01  1.071226642E-06  0.00000E+00  9.000E+00
      12     1     5     5     0     0  1.648283538E+01 -4.588026557E+00  5.880973515E+01  6.124801056E+01  6.743495762E-07  0.00000E+00  9.000E+00
      13     1     6     6     0     0 -1.964609701E+01  4.812777338E+01  1.072936795E+01  5.307891328E+01  1.149612756E-06  0.00000E+00  9.000E+00
     -14     1     6     6     0     0 -8.200692153E+01 -8.235150748E+00 -8.992517518E+00  8.290849328E+01  2.890671647E-06  0.00000E+00  9.000E+00
       5     1     3     3   502     0  7.605753021E+01 -2.400715740E+01 -2.994747086E+01  8.532587543E+01  4.750000000E+00  0.00000E+00  9.000E+00
      -5     1     4     4     0   504  3.939856642E+01 -1.902882649E+01 -2.208090445E+01  4.923892886E+01  4.750000000E+00  0.00000E+00  9.000E+00
      21     1     1     2   504   512  7.241402011E+00  2.532883180E+01  1.549000000E+01  3.056023108E+01  6.307962682E-07  0.00000E+00  9.000E+00
</event>
<event>
     13  10001  1.00000E+00  1.28869E+01 -1.00000E+00  1.89274E-01
      21    -1     0     0   511   503  0.000000000E+00  0.000000000E+00  2.599456590E+02  2.599456590E+02  0.000000000E+00  0.00000E+00  9.000E+00
      21    -1     0     0   503   504  0.000000000E+00  0.000000000E+00 -2.280710111E+02  2.280710111E+02  0.000000000E+00  0.00000E+00  9.000E+00
       6     2     1     2   502     0  7.602755986E+01 -1.317138865E+02  6.570747257E+01  2.388099866E+02  1.720000000E+02  0.00000E+00  9.000E+00
      -6     2     1     2     0   504 -6.801686280E+01  1.418085301E+02 -3.687509202E+01  2.359655171E+02  1.720000000E+02  0.00000E+00  9.000E+00
      24     2     3     3     0     0  1.095513340E+02 -1.007386787E+02  8.428123447E+01  1.893038854E+02  8.113481607E+01  0.00000E+00  9.000E+00
     -24     2     4     4     0     0 -5.387595223E+01  7.537969324E+01 -8.939725141E+01  1.499777537E+02  7.692035927E+01  0.00000E+00  9.000E+00
     -11     1     5     5     0     0  1.296754639E+01 -6.510934678E+01  2.888781350E+01  7.240089824E+01  2.211002945E-06  0.00000E+00  9.000E+00
      12     1     5     5     0     0  9.658378757E+01 -3.562933188E+01  5.539342097E+01  1.169029871E+02  1.348699152E-06  0.00000E+00  9.000E+00
      13     1     6     6     0     0  1.487703996E+01 -7.175063946E-01 -2.431414898E+01  2.851348758E+01  6.743495762E-07  0.00000E+00  9.000E+00
     -14     1     6     6     0     0 -6.875299219E+01  7.609719963E+01 -6.508310242E+01  1.214642661E+02  2.336015456E-06  0.00000E+00  9.000E+00
       5     1     3     3   502     0 -3.352377410E+01 -3.097520787E+01 -1.857376190E+01  4.950610127E+01  4.750000000E+00  0.00000E+00  9.000E+00
      -5     1     4     4     0   504 -1.414091057E+01  6.642883686E+01  5.252215939E+01  8.598776335E+01  4.750000000E+00  0.00000E+00  9.000E+00
      21     1     1     2   511   502 -8.010697056E+00 -1.009464357E+01  3.042267340E+00  1.324116636E+01  2.064765462E-07  0.00000E+00  9.000E+00
</event>
<event>
     13  10001  1.00000E+00  4.11996E+01 -1.00000E+00  1.47316E-01
      21    -1     0     0   503   504  0.000000000E+00  0.000000000E+00  4.115256720E+02  4.115256720E+02  0.000000000E+00  0.00000E+00  9.000E+00
      21    -1     0     0   512   503  0.000000000E+00  0.000000000E+00 -2.960824904E+02  2.960824904E+02  0.000000000E+00  0.00000E+00  9.000E+00
       6     2     1     2   502     0  1.229798497E+01  6.565966734E+01  2.826310644E+02  3.375303703E+02  1.720000000E+02  0.00000E+00  9.000E+00
      -6     2     1     2     0   504 -5.239091208E+01 -5.617479703E+01  9.536715138E+00  1.886143272E+02  1.720000000E+02  0.00000E+00  9.000E+00
      24     2     3     3     0     0 -4.127363184E+01  3.686202251E+01  9.143068185E+01  1.368331575E+02  8.544835873E+01  0.00000E+00  9.000E+00
     -24     2     4     4     0     0 -7.419308467E+00  3.384628940E+01  1.976965410E+00  8.758980815E+01  8.042044924E+01  0.00000E+00  9.000E+00
     -11     1     5     5     0     0 -3.597017808E+00  3.567511563E+01 -2.175610880E+00  3.592193891E+01  6.906169788E-07  0.00000E+00  9.000E+00
      12     1     5     5     0     0 -3.767661403E+01  1.186906883E+00  9.360629273E+01  1.009112186E+02  1.907348633E-06  0.00000E+00  9.000E+00
      13     1     6     6     0     0 -1.749400663E+01  2.273348786E+01 -3.642395364E+01  4.636330594E+01  1.168007728E-06  0.00000E+00  9.000E+00
     -14     1     6     6     0     0  1.007469817E+01  1.111280154E+01  3.840091905E+01  4.122650222E+01  6.743495762E-07  0.00000E+00  9.000E+00
       5     1     3     3   502     0  5.357161681E+01  2.879764483E+01  1.912003825E+02  2.006972129E+02  4.750000000E+00  0.00000E+00  9.000E+00
      -5     1     4     4     0   504 -4.497160361E+01 -9.002108642E+01  7.559749728E+00  1.010245190E+02  4.750000000E+00  0.00000E+00  9.000E+00
      21     1     1     2   512   502  4.009292711E+01 -9.484870311E+00 -1.767245979E+02  1.814634649E+02  2.697398305E-06  0.00000E+00  9.000E+00
</event>
<event>
     13  10001  1.00000E+00  4.91915E+01 -1.00000E+00  1.42537E-01
       2    -1     0     0   503     0  0.000000000E+00  0.000000000E+00  1.067610841E+03  1.067610841E+03  0.000000000E+00  0.00000E+00  9.000E+00
      21    -1     0     0   502   503  0.000000000E+00  0.000000000E+00 -1.583363629E+02  1.583363629E+02  0.000000000E+00  0.00000E+00  9.000E+00
       6     2     1     2   502     0  3.432019314E+01 -7.820404049E+01  4.010768641E+02  4.446801081E+02  1.720000000E+02  0.00000E+00  9.000E+00
      -6     2     1     2     0   504  1.131058935E+01  5.982924672E+01 -7.407319413E+01  1.969220818E+02  1.720000000E+02  0.00000E+00  9.000E+00
      24     2     3     3     0     0 -8.021081865E+00 -1.952576965E+01  8.016589686E+01  1.156780801E+02  8.067994642E+01  0.00000E+00  9.000E+00
     -24     2     4     4     0     0 -2.158912669E+01 -2.677876706E+01 -5.384291911E+01  1.019738543E+02  7.947587226E+01  0.00000E+00  9.000E+00
     -11     1     5     5     0     0  2.484113559E+00 -2.647910181E+01  9.357404036E+01  9.728008368E+01  0.000000000E+00  0.00000E+00  9.000E+00
      12     1     5     5     0     0 -1.050519542E+01  6.953332155E+00 -1.340814350E+01  1.839799639E+01  0.000000000E+00  0.00000E+00  9.000E+00
      13     1     6     6     0     0 -3.215152087E+01 -4.660487773E+01 -1.752413006E+01  5.926913241E+01  5.331201500E-07  0.00000E+00  9.000E+00
     -14     1     6     6     0     0  1.056239418E+01  1.982611067E+01 -3.631878905E+01  4.270472191E+01  1.168007728E-06  0.00000E+00  9.000E+00
       5     1     3     3   502     0  4.234127501E+01 -5.867827083E+01  3.209109673E+02  3.290020280E+02  4.750000000E+00  0.00000E+00  9.000E+00
      -5     1     4     4     0   504  3.289971604E+01  8.660801377E+01 -2.023027501E+01  9.494822743E+01  4.750000000E+00  0.00000E+00  9.000E+00
       2     1     1     2   504     0 -4.563078250E+01  1.837479377E+01  5.822708083E+02  5.843450142E+02  0.000000000E+00  0.00000E+00  9.000E+00
</event>
<event>
     13  10001  1.00000E+00  1.05367E+02 -1.00000E+00  1.25163E-01
      21    -1     0     0   511   512  0.000000000E+00  0.000000000E+00  1.886695247E+02  1.886695247E+02  0.000000000E+00  0.00000E+00  9.000E+00
       2    -1     0     0   502     0  0.000000000E+00  0.000000000E+00 -8.774453766E+02  8.774453766E+02  0.000000000E+00  0.00000E+00  9.000E+00
       6     2     1     2   502     0  1.293311651E+02  1.550012240E+01 -6.534146719E+02  6.881144799E+02  1.720000000E+02  0.00000E+00  9.000E+00
      -6     2     1     2     0   512 -3.303015183E+01  2.725807690E+01 -1.427249138E+02  2.275706367E+02  1.720000000E+02  0.00000E+00  9.000E+00
      24     2     3     3     0     0  7.555228445E+01  1.836694454E+01 -6.055059312E+02  6.158773938E+02  8.137591292E+01  0.00000E+00  9.000E+00
     -24     2     4     4     0     0  2.704366768E+01 -1.808456422E+01 -6.740516739E+01  1.209852457E+02  9.505557138E+01  0.00000E+00  9.000E+00
     -11     1     5     5     0     0 -5.348785442E+00 -1.696600099E+01 -4.376991945E+01  4.724680459E+01  2.523185073E-06  0.00000E+00  9.000E+00
      12     1     5     5     0     0  8.090106990E+01  3.533294553E+01 -5.617360117E+02  5.686305892E+02  7.629394531E-06  0.00000E+00  9.000E+00
      13     1     6     6     0     0 -2.494884760E+01 -3.542363611E+01 -1.706358207E+01  4.656656338E+01  9.536743164E-07  0.00000E+00  9.000E+00
     -14     1     6     6     0     0  5.199251528E+01  1.733907188E+01 -5.034158532E+01  7.441868227E+01  1.348699152E-06  0.00000E+00  9.000E+00
       5     1     3     3   502     0  5.377888064E+01 -2.866822142E+00 -4.790874070E+01  7.223708609E+01  4.750000000E+00  0.00000E+00  9.000E+00
      -5     1     4     4     0   512 -6.007381951E+01  4.534264112E+01 -7.531974638E+01  1.065853911E+02  4.750000000E+00  0.00000E+00  9.000E+00
       2     1     1     2   511     0 -9.630101326E+01 -4.275819930E+01  1.073637338E+02  1.504297846E+02  0.000000000E+00  0.00000E+00  9.000E+00
</event>
<event>
     13  10001  1.00000E+00  7.76485E+01 -1.00000E+00  1.31578E-01
      21    -1     0     0   513   512  0.000000000E+00  0.000000000E+00  3.661634670E+02  3.661634670E+02  0.000000000E+00  0.00000E+00  9.000E+00
       3    -1     0     0   502     0  0.000000000E+00  0.000000000E+00 -6.047287408E+02  6.047287408E+02  0.000000000E+00  0.00000E+00  9.000E+00
       6     2     1     2   502     0  1.576244938E+02  1.427990808E+01 -4.902412154E+02  5.431112650E+02  1.720000000E+02  0.00000E+00  9.000E+00
      -6     2     1     2     0   512 -8.459293380E+01 -4.065576716E+01  3.688085357E+01  1.993816772E+02  1.720000000E+02  0.00000E+00  9.000E+00
      24     2     3     3     0     0  1.085052408E+02  1.270009536E+01 -4.704304587E+02  4.899114021E+02  8.230240406E+01  0.00000E+00  9.000E+00
     -24     2     4     4     0     0 -1.032633198E+02  1.508094880E+01 -2.554124994E+00  1.284391311E+02  7.482872842E+01  0.00000E+00  9.000E+00
     -11     1     5     5     0     0  4.515985262E+01 -3.485446513E+01 -1.761202938E+02  1.851286146E+02  2.697398305E-06  0.00000E+00  9.000E+00
      12     1     5     5     0     0  6.334538818E+01  4.755456049E+01 -2.943101649E+02  3.047827876E+02  0.000000000E+00  0.00000E+00  9.000E+00
      13     1     6     6     0     0 -4.925925932E+01 -2.877813110E+01  9.490730185E+00  5.783363570E+01  1.479348379E-06  0.00000E+00  9.000E+00
     -14     1     6     6     0     0 -5.400406051E+01  4.385907990E+01 -1.204485518E+01  7.060549537E+01  2.023048729E-06  0.00000E+00  9.000E+00
       5     1     3     3   502     0  4.911925304E+01  1.579812718E+00 -1.981075670E+01  5.319986286E+01  4.750000000E+00  0.00000E+00  9.000E+00
      -5     1     4     4     0   512  1.867038603E+01 -5.573671596E+01  3.943497856E+01  7.094254615E+01  4.750000000E+00  0.00000E+00  9.000E+00
       3     1     1     2   513     0 -7.303156003E+01  2.637585908E+01  2.147950881E+02  2.283992657E+02  0.000000000E+00  0.00000E+00  9.000E+00
</event>
<event>
     13  10001  1.00000E+00  1.05017E+02 -1.00000E+00  1.25230E-01
      21    -1     0     0   503   504  0.000000000E+00  0.000000000E+00  5.785993297E+02  5.785993297E+02  0.000000000E+00  0.00000E+00  9.000E+00
      21    -1     0     0   511   503  0.000000000E+00  0.000000000E+00 -3.778309794E+02  3.778309794E+02  0.000000000E+00  0.00000E+00  9.000E+00
       6     2     1     2   502     0 -1.527324174E+02 -1.369199354E+02  2.966312099E+02  3.995601766E+02  1.720000000E+02  0.00000E+00  9.000E+00
      -6     2     1     2     0   504  8.967998070E+01  2.209012207E+02  1.194435272E+02  3.173178287E+02  1.720000000E+02  0.00000E+00  9.000E+00
      24     2     3     3     0     0 -1.790878630E+02 -1.388344069E+02  2.769941654E+02  3.662968224E+02  7.810338802E+01  0.00000E+00  9.000E+00
     -24     2     4     4     0     0  6.946438067E+01  5.339179694E+01  8.131487651E+01  1.442732275E+02  8.078781379E+01  0.00000E+00  9.000E+00
     -11     1     5     5     0     0 -1.358425496E+02 -1.264366360E+02  1.761258520E+02  2.558510053E+02  3.814697266E-06  0.00000E+00  9.000E+00
      12     1     5     5     0     0 -4.324531345E+01 -1.239777093E+01  1.008683134E+02  1.104458171E+02  1.907348633E-06  0.00000E+00  9.000E+00
      13     1     6     6     0     0  2.210766811E+00  5.185664460E+01  3.544661757E+01  6.285269904E+01  6.743495762E-07  0.00000E+00  9.000E+00
     -14     1     6     6     0     0  6.725361386E+01  1.535152337E+00  4.586825895E+01  8.142052842E+01  2.132480600E-06  0.00000E+00  9.000E+00
       5     1     3     3   502     0  2.635544563E+01  1.914471480E+00  1.963704451E+01  3.326335420E+01  4.750000000E+00  0.00000E+00  9.000E+00
      -5     1     4     4     0   504  2.021560003E+01  1.675094237E+02  3.812865069E+01  1.730446012E+02  4.750000000E+00  0.00000E+00  9.000E+00
      21     1     1     2   511   502  6.305243667E+01 -8.398128522E+01 -2.153063868E+02  2.395523038E+02  0.000000000E+00  0.00000E+00  9.000E+00
</event>
<event>
     13  10001  1.00000E+00  1.48027E+01 -1.00000E+00  1.83010E-01
       4    -1     0     0   502     0  0.000000000E+00  0.000000000E+00  1.093845414E+02  1.093845414E+02  0.000000000E+00  0.00000E+00  9.000E+00
      -4    -1     0     0     0   513  0.000000000E+00  0.000000000E+00 -3.331513108E+02  3.331513108E+02  0.000000000E+00  0.00000E+00  9.000E+00
       6     2     1     2   502     0  4.586601815E+01 -2.374963068E+01 -1.502872643E+02  2.341751447E+02  1.720000000E+02  0.00000E+00  9.000E+00
      -6     2     1     2     0   512 -3.319302832E+01  3.139925333E+01 -5.858210261E+01  1.873594219E+02  1.720000000E+02  0.00000E+00  9.000E+00
      24     2     3     3     0     0  2.949056468E+01 -4.933436597E+01 -1.696351270E+02  1.978483440E+02  8.404949630E+01  0.00000E+00  9.000E+00
     -24     2     4     4     0     0 -7.823371077E+01 -1.214515659E+00 -8.038839582E+00  1.120633069E+02  7.982213514E+01  0.00000E+00  9.000E+00
     -11     1     5     5     0     0  2.956994962E+01 -2.184887441E+01 -1.661187103E+02  1.701387114E+02  0.000000000E+00  0.00000E+00  9.000E+00
      12     1     5     5     0     0 -7.938494859E-02 -2.748549156E+01 -3.516416747E+00  2.770963253E+01  3.475518164E-07  0.00000E+00  9.000E+00
      13     1     6     6     0     0 -6.602627965E+01  1.018451662E+01 -3.865752131E+01  7.718547750E+01  1.784161275E-06  0.00000E+00  9.000E+00
     -14     1     6     6     0     0 -1.220743112E+01 -1.139903228E+01  3.061868173E+01  3.487782938E+01  3.371747881E-07  0.00000E+00  9.000E+00
       5     1     3     3   502     0  1.637545348E+01  2.558473530E+01  1.934786273E+01  3.632680070E+01  4.750000000E+00  0.00000E+00  9.000E+00
      -5     1     4     4     0   512  4.504068245E+01  3.261376899E+01 -5.054326303E+01  7.529611504E+01  4.750000000E+00  0.00000E+00  9.000E+00
      21     1     1     2   512   513 -1.267298983E+01 -7.649622655E+00 -1.489740247E+01  2.100128564E+01  4.129530925E-07  0.00000E+00  9.000E+00
</event>
<event>
     13  10001  1.00000E+00  3.27478E+01 -1.00000E+00  1.54019E-01
      21    -1     0     0   502   503  0.000000000E+00  0.000000000E+00  4.157875824E+02  4.157875824E+02  0.000000000E+00  0.00000E+00  9.000E+00
      21    -1     0     0   511   504  0.000000000E+00  0.000000000E+00 -2.719874988E+02  2.719874988E+02  0.000000000E+00  0.00000E+00  9.000E+00
       6     2     1     2   502     0 -3.226273291E+01 -1.137735604E+01  3.302150280E+02  3.738934245E+02  1.720000000E+02  0.00000E+00  9.000E+00
      -6     2     1     2     0   504  6.123001298E+01  2.665209077E+01 -7.745476060E+01  2.001066925E+02  1.720000000E+02  0.00000E+00  9.000E+00
      24     2     3     3     0     0  1.005798017E+01  6.563144846E+00  6.452119485E+01  1.042108707E+02  8.094864521E+01  0.00000E+00  9.000E+00
     -24     2     4     4     0     0  6.044461397E+01  3.041484341E+01  1.372037015E+01  1.087270332E+02  8.399229213E+01  0.00000E+00  9.000E+00
     -11     1     5     5     0     0 -1.880879238E+01  1.434229391E+01  6.993624322E+01  7.382784150E+01  1.348699152E-06  0.00000E+00  9.000E+00
      12     1     5     5     0     0  2.886677255E+01 -7.779149061E+00 -5.415048364E+00  3.038302925E+01  8.128989754E-07  0.00000E+00  9.000E+00
      13     1     6     6     0     0 -1.523833781E+01 -4.217631070E+00  1.972541342E+01  2.528017574E+01  5.331201500E-07  0.00000E+00  9.000E+00
     -14     1     6     6     0     0  7.568295178E+01  3.463247448E+01 -6.005043270E+00  8.344685748E+01  1.540523527E-06  0.00000E+00  9.000E+00
       5     1     3     3   502     0 -4.232071308E+01 -1.794050089E+01  2.656938331E+02  2.696825537E+02  4.750000000E+00  0.00000E+00  9.000E+00
      -5     1     4     4     0   504  7.853990111E-01 -3.762752635E+00 -9.117513074E+01  9.137965925E+01  4.750000000E+00  0.00000E+00  9.000E+00
      21     1     1     2   511   503 -2.896728008E+01 -1.527473473E+01 -1.089601838E+02  1.137749643E+02  1.348699152E-06  0.00000E+00  9.000E+00
</event>
<event>
     13  10001  1.00000E+00  2.02935E+01 -1.00000E+00  1.70234E-01
      21    -1     0     0   502   503  0.000000000E+00  0.000000000E+00  1.592375706E+02  1.592375706E+02  0.000000000E+00  0.00000E+00  9.000E+00
       1    -1     0     0   503     0  0.000000000E+00  0.000000000E+00 -1.865668046E+03  1.865668046E+03  0.000000000E+00  0.00000E+00  9.000E+00
       6     2     1     2   502     0  3.002558921E+02  8.631310025E+01 -3.052237031E+02  4.694135287E+02  1.720000000E+02  0.00000E+00  9.000E+00
      -6     2     1     2     0   504 -3.103893010E+02 -1.038954573E+02 -3.666036075E+02  5.206899166E+02  1.720000000E+02  0.00000E+00  9.000E+00
      24     2     3     3     0     0  1.685848996E+02  4.555051990E+01 -1.066296658E+02  2.276264480E+02  9.974064362E+01  0.00000E+00  9.000E+00
     -24     2     4     4     0     0 -2.620251261E+02 -1.392425072E+02 -3.276343147E+02  4.490681627E+02  7.919803077E+01  0.00000E+00  9.000E+00
     -11     1     5     5     0     0  2.133284731E+01  4.306806160E+01 -4.220127700E+00  4.824684220E+01  1.270012602E-06  0.00000E+00  9.000E+00
      12     1     5     5     0     0  1.472520523E+02  2.482458294E+00 -1.024095381E+02  1.793796058E+02  1.348699152E-06  0.00000E+00  9.000E+00
      13     1     6     6     0     0 -2.489236389E+02 -1.184757190E+02 -3.219718887E+02  4.238695213E+02  8.529922400E-06  0.00000E+00  9.000E+00
     -14     1     6     6     0     0 -1.310148723E+01 -2.076678824E+01 -5.662426003E+00  2.519864142E+01  1.912928407E-06  0.00000E+00  9.000E+00
       5     1     3     3   502     0  1.316709925E+02  4.076258036E+01 -1.985940374E+02  2.417870807E+02  4.750000000E+00  0.00000E+00  9.000E+00
      -5     1     4     4     0   504 -4.836417487E+01  3.534704990E+01 -3.896929285E+01  7.162175391E+01  4.750000000E+00  0.00000E+00  9.000E+00
       1     1     1     2   504     0  1.013340886E+01  1.758235709E+01 -1.034603165E+03  1.034802172E+03  2.157918644E-05  0.00000E+00  9.000E+00
</event>
<event>
     13  10001  1.00000E+00  2.99083E+02 -1.00000E+00  1.07357E-01
      21    -1     0     0   511   503  0.000000000E+00  0.000000000E+00  1.389152007E+03  1.389152007E+03  0.000000000E+00  0.00000E+00  9.000E+00
      21    -1     0     0   503   504  0.000000000E+00  0.000000000E+00 -1.145326394E+02  1.145326394E+02  0.000000000E+00  0.00000E+00  9.000E+00
       6     2     1     2   502     0 -2.154935183E+02  6.706360628E+01  3.092978873E+02  4.197429771E+02  1.720000000E+02  0.00000E+00  9.000E+00
      -6     2     1     2     0   504 -4.815093404E+01  7.415428135E+01  4.044850465E+02  4.483408555E+02  1.720000000E+02  0.00000E+00  9.000E+00
      24     2     3     3     0     0 -1.798307272E+02  8.187130278E+01  1.633319015E+02  2.686809566E+02  8.043721586E+01  0.00000E+00  9.000E+00
     -24     2     4     4     0     0 -7.449767610E+01  1.726378538E+00  1.830871085E+02  2.138636469E+02  8.163262848E+01  0.00000E+00  9.000E+00
     -11     1     5     5     0     0 -4.660324752E+01 -1.439330074E+01  3.264679867E+01  5.869278703E+01  1.348699152E-06  0.00000E+00  9.000E+00
      12     1     5     5     0     0 -1.332274797E+02  9.626460352E+01  1.306851029E+02  2.099881695E+02  4.672030912E-06  0.00000E+00  9.000E+00
      13     1     6     6     0     0  6.039562726E+00 -6.651220139E+00 -4.128898912E+00  9.887509974E+00  3.625608999E-07  0.00000E+00  9.000E+00
     -14     1     6     6     0     0 -8.053723883E+01  8.377598677E+00  1.872160074E+02  2.039761369E+02  2.697398305E-06  0.00000E+00  9.000E+00
       5     1     3     3   502     0 -3.566279110E+01 -1.480769650E+01  1.459659857E+02  1.510620205E+02  4.750000000E+00  0.00000E+00  9.000E+00
      -5     1     4     4     0   504  2.634674206E+01  7.242790282E+01  2.213979379E+02  2.344772086E+02  4.750000000E+00  0.00000E+00  9.000E+00
      21     1     1     2   511   502  2.636444523E+02 -1.412178876E+02  5.608364334E+02  6.356008134E+02  0.000000000E+00  0.00000E+00  9.000E+00
</event>
<event>
     13  10001  1.00000E+00  7.86920E+00 -1.00000E+00  2.15729E-01
      21    -1     0     0   502   512  0.000000000E+00  0.000000000E+00  3.803951326E+02  3.803951326E+02  0.000000000E+00  0.00000E+00  9.000E+00
      21    -1     0     0   503   504  0.000000000E+00  0.000000000E+00 -8.482121894E+02  8.482121894E+02  0.000000000E+00  0.00000E+00  9.000E+00
       6     2     1     2   502     0  8.642334438E+01 -3.302679655E+01 -3.917895905E+02  4.377703131E+02  1.720000000E+02  0.00000E+00  9.000E+00
      -6     2     1     2     0   504 -9.185099072E+01  2.732899416E+01 -4.110228978E+02  4.557491645E+02  1.720000000E+02  0.00000E+00  9.000E+00
      24     2     3     3     0     0  9.273617847E+01 -2.954545555E+01 -1.521426439E+02  1.979679087E+02  8.106155709E+01  0.00000E+00  9.000E+00
     -24     2     4     4     0     0 -6.028029187E+01 -4.327552562E+00 -1.466190526E+02  1.875499813E+02  1.001269575E+02  0.00000E+00  9.000E+00
     -11     1     5     5     0     0  6.961432744E+01 -1.776028185E+01 -1.559830606E+02  1.717332157E+02  1.907348633E-06  0.00000E+00  9.000E+00
      12     1     5     5     0     0  2.312185103E+01 -1.178517370E+01  3.840416688E+00  2.623469296E+01  5.364418030E-07  0.00000E+00  9.000E+00
      13     1     6     6     0     0  2.223548666E+01 -1.940906824E+01 -1.995138221E+01  3.562564314E+01  7.539457465E-07  0.00000E+00  9.000E+00
     -14     1     6     6     0     0 -8.251577852E+01  1.508151568E+01 -1.266676704E+02  1.519243382E+02  3.303624740E-06  0.00000E+00  9.000E+00
       5     1     3     3   502     0 -6.312834086E+00 -3.481341001E+00 -2.396469466E+02  2.398024044E+02  4.750000000E+00  0.00000E+00  9.000E+00
      -5     1     4     4     0   504 -3.157069885E+01  3.165654672E+01 -2.644038452E+02  2.681991832E+02  4.750000000E+00  0.00000E+00  9.000E+00
      21     1     1     2   503   512  5.427646337E+00  5.697802389E+00  3.349954316E+02  3.350878444E+02  5.394796609E-06  0.00000E+00  9.000E+00
</event>
<event>
     13  10001  1.00000E+00  1.22960E+01 -1.00000E+00  1.91498E-01
      21    -1     0     0   502   503  0.000000000E+00  0.000000000E+00  2.966804871E+02  2.966804871E+02  0.000000000E+00  0.00000E+00  9.000E+00
      21    -1     0     0   503   511  0.000000000E+00  0.000000000E+00 -4.664912520E+02  4.664912520E+02  0.000000000E+00  0.00000E+00  9.000E+00
       6     2     1     2   502     0  1.485308414E+01  1.198995924E+02  2.212866649E+02  3.052020878E+02  1.720000000E+02  0.00000E+00  9.000E+00
      -6     2     1     2     0   504 -1.614722300E+01 -1.321273276E+02 -3.271307519E+02  3.928318881E+02  1.720000000E+02  0.00000E+00  9.000E+00
      24     2     3     3     0     0  3.508268056E+01  6.056127883E+01  4.018914879E+01  1.135014231E+02  7.980565391E+01  0.00000E+00  9.000E+00
     -24     2     4     4     0     0 -3.572533175E+01 -3.434162552E+01 -2.475538919E+02  2.651589270E+02  8.105973458E+01  0.00000E+00  9.000E+00
     -11     1     5     5     0     0  4.153498131E+01  2.481393288E-01  3.170545631E+01  5.225372910E+01  3.371747881E-07  0.00000E+00  9.000E+00
      12     1     5     5     0     0 -6.452300745E+00  6.031313950E+01  8.483692482E+00  6.124769400E+01  2.665600750E-07  0.00000E+00  9.000E+00
      13     1     6     6     0     0 -3.571704425E+01 -4.190525419E+01 -7.822051827E+01  9.565671465E+01  1.907348633E-06  0.00000E+00  9.000E+00
     -14     1     6     6     0     0 -8.287507004E-03  7.563628670E+00 -1.693333737E+02  1.695022123E+02  2.697398305E-06  0.00000E+00  9.000E+00
       5     1     3     3   502     0 -2.022959642E+01  5.933831359E+01  1.810975161E+02  1.917006647E+02  4.750000000E+00  0.00000E+00  9.000E+00
      -5     1     4     4     0   504  1.957810876E+01 -9.778570205E+01 -7.957685991E+01  1.276729611E+02  4.750000000E+00  0.00000E+00  9.000E+00
      21     1     1     2   504   511  1.294138855E+00  1.222773515E+01 -6.396667794E+01  6.513776316E+01  9.536743164E-07  0.00000E+00  9.000E+00
</event>
<event>
     13  10001  1.00000E+00  5.59571E+01 -1.00000E+00  1.39257E-01
      21    -1     0     0   512   503  0.000000000E+00  0.000000000E+00  4.254474725E+02  4.254474725E+02  0.000000000E+00  0.00000E+00  9.000E+00
      21    -1     0     0   503   504  0.000000000E+00  0.000000000E+00 -2.823021784E+02  2.823021784E+02  0.000000000E+00  0.00000E+00  9.000E+00
       6     2     1     2   502     0 -1.279958551E+02 -2.234624816E+01 -1.180334482E+02  2.457604293E+02  1.720000000E+02  0.00000E+00  9.000E+00
      -6     2     1     2     0   504  9.949974449E+01  7.050403465E+01  1.705255644E+01  2.115320490E+02  1.720000000E+02  0.00000E+00  9.000E+00
      24     2     3     3     0     0 -8.496636454E+01  4.486221588E+01 -3.333880493E+01  1.292947271E+02  7.983576285E+01  0.00000E+00  9.000E+00
     -24     2     4     4     0     0  8.646739931E+01  2.636816349E+01  7.046908897E+01  1.408658930E+02  8.188660533E+01  0.00000E+00  9.000E+00
     -11     1     5     5     0     0 -7.978328304E+00  4.553999870E+01 -2.325434118E+00  4.629203871E+01  3.637837057E-07  0.00000E+00  9.000E+00
      12     1     5     5     0     0 -7.698803624E+01 -6.777828240E-01 -3.101337081E+01  8.300268840E+01  8.920806376E-07  0.00000E+00  9.000E+00
      13     1     6     6     0     0  7.010672346E+01  1.423736174E+01  4.337724372E+00  7.166917745E+01  1.435469935E-06  0.00000E+00  9.000E+00
     -14     1     6     6     0     0  1.636067585E+01  1.213080175E+01  6.613136460E+01  6.919671560E+01  1.651812370E-06  0.00000E+00  9.000E+00
       5     1     3     3   502     0 -4.302949060E+01 -6.720846404E+01 -8.469464324E+01  1.164657022E+02  4.750000000E+00  0.00000E+00  9.000E+00
      -5     1     4     4     0   504  1.303234518E+01  4.413587116E+01 -5.341653253E+01  7.066615592E+01  4.750000000E+00  0.00000E+00  9.000E+00
      21     1     1     2   512   502  2.849611065E+01 -4.815778649E+01  2.441261858E+02  2.504571726E+02  0.000000000E+00  0.00000E+00  9.000E+00
</event>
<event>
     13  10001  1.00000E+00  1.77855E+02 -1.00000E+00  1.15532E-01
       1    -1     0     0   503     0  0.000000000E+00  0.000000000E+00  8.648472754E+02  8.648472754E+02  0.000000000E+00  0.00000E+00  9.000E+00
      21    -1     0     0   502   503  0.000000000E+00  0.000000000E+00 -2.604928528E+02  2.604928528E+02  0.000000000E+00  0.00000E+00  9.000E+00
       6     2     1     2   502     0  1.061925430E+02 -2.033444360E+02 -1.119680974E+02  3.078094714E+02  1.720000000E+02  0.00000E+00  9.000E+00
      -6     2     1     2     0   504 -1.061559928E+02  2.548970051E+01  2.793060103E+02  3.457089340E+02  1.720000000E+02  0.00000E+00  9.000E+00
      24     2     3     3     0     0  6.166200978E+01 -1.044646737E+02 -1.337479620E+02  1.970976799E+02  7.901839388E+01  0.00000E+00  9.000E+00
     -24     2     4     4     0     0 -1.242992742E+02  3.853160506E+00  1.419332847E+02  2.053837874E+02  8.106963913E+01  0.00000E+00  9.000E+00
     -11     1     5     5     0     0  6.271179235E+01 -1.065750550E+02 -8.916228838E+01  1.524497455E+02  2.523185073E-06  0.00000E+00  9.000E+00
      12     1     5     5     0     0 -1.049782572E+00  2.110381208E+00 -4.458567362E+01  4.464793439E+01  1.066240300E-06  0.00000E+00  9.000E+00
      13     1     6     6     0     0 -1.130908152E+02  3.247998701E+01  1.145483942E+02  1.642127177E+02  1.348699152E-06  0.00000E+00  9.000E+00
     -14     1     6     6     0     0 -1.120845901E+01 -2.862682650E+01  2.738489048E+01  4.117106964E+01  0.000000000E+00  0.00000E+00  9.000E+00
       5     1     3     3   502     0  4.453053323E+01 -9.887976230E+01  2.177986459E+01  1.107117915E+02  4.750000000E+00  0.00000E+00  9.000E+00
      -5     1     4     4     0   504  1.814328146E+01  2.163654000E+01  1.373727256E+02  1.403251466E+02  4.750000000E+00  0.00000E+00  9.000E+00
       1     1     1     2   504     0 -3.655021993E-02  1.778547355E+02  4.370165098E+02  4.718217228E+02  5.394796609E-06  0.00000E+00  9.000E+00
</event>
<event>
     13  10001  1.00000E+00  2.08112E+01 -1.00000E+00  1.69293E-01
      21    -1     0     0   502   511  0.000000000E+00  0.000000000E+00  5.439900346E+02  5.439900346E+02  0.000000000E+00  0.00000E+00  9.000E+00
      21    -1     0     0   503   504  0.000000000E+00  0.000000000E+00 -8.371488899E+01  8.371488899E+01  0.000000000E+00  0.00000E+00  9.000E+00
       6     2     1     2   502     0  3.662221287E+01  7.553002507E+01  1.292735762E+02  2.309580669E+02  1.720000000E+02  0.00000E+00  9.000E+00
      -6     2     1     2     0   504 -3.646695675E+01 -5.471939625E+01  2.351901613E+02  2.987012943E+02  1.720000000E+02  0.00000E+00  9.000E+00
      24     2     3     3     0     0 -3.392350225E+01  6.286146665E+01  1.143326904E+02  1.575892529E+02  8.160907148E+01  0.00000E+00  9.000E+00
     -24     2     4     4     0     0  1.890878272E+01 -7.662067986E+01  1.834981058E+02  2.197027510E+02  9.148482562E+01  0.00000E+00  9.000E+00
     -11     1     5     5     0     0 -4.787428686E+01  2.920527805E+01  2.555695277E+01  6.162834935E+01  1.685873940E-06  0.00000E+00  9.000E+00
      12     1     5     5     0     0  1.395078461E+01  3.365618860E+01  8.877573765E+01  9.596090359E+01  2.523185073E-06  0.00000E+00  9.000E+00
      13     1     6     6     0     0  2.828521116E+01 -3.253980086E+00  1.164252379E+02  1.198560703E+02  1.348699152E-06  0.00000E+00  9.000E+00
     -14     1     6     6     0     0 -9.376428435E+00 -7.336669977E+01  6.707286787E+01  9.984668072E+01  1.651812370E-06  0.00000E+00  9.000E+00
       5     1     3     3   502     0  7.054571512E+01  1.266855842E+01  1.494088580E+01  7.336881397E+01  4.750000000E+00  0.00000E+00  9.000E+00
      -5     1     4     4     0   504 -5.537573947E+01  2.190128361E+01  5.169205549E+01  7.899854332E+01  4.750000000E+00  0.00000E+00  9.000E+00
      21     1     1     2   503   511 -1.552561239E-01 -2.081062882E+01  9.581140809E+01  9.804556235E+01  0.000000000E+00  0.00000E+00  9.000E+00
</event>
<event>
     13  10001  1.00000E+00  8.51096E+01 -1.00000E+00  1.29580E-01
      21    -1     0     0   503   512  0.000000000E+00  0.000000000E+00  8.041908341E+01  8.041908341E+01  0.000000000E+00  0.00000E+00  9.000E+00
      21    -1     0     0   502   503  0.000000000E+00  0.000000000E+00 -1.740588422E+03  1.740588422E+03  0.000000000E+00  0.00000E+00  9.000E+00
       6     2     1     2   502     0  1.955856696E+01 -5.713938725E+00 -7.381346461E+02  7.581833172E+02  1.720000000E+02  0.00000E+00  9.000E+00
      -6     2     1     2     0   504 -9.821630478E+01 -2.679155886E+01 -9.518767991E+02  9.726343973E+02  1.720000000E+02  0.00000E+00  9.000E+00
      24     2     3     3     0     0  2.938431260E+01  5.744103854E+01 -3.525421470E+02  3.673006823E+02  8.037981720E+01  0.00000E+00  9.000E+00
     -24     2     4     4     0     0 -1.061933550E+02  3.325854113E+01 -5.899496498E+02  6.056419291E+02  7.986487181E+01  0.00000E+00  9.000E+00
     -11     1     5     5     0     0  5.509442176E+01  2.232637421E+01 -1.952922026E+02  2.041394295E+02  5.394796609E-06  0.00000E+00  9.000E+00
      12     1     5     5     0     0 -2.571010916E+01  3.511466433E+01 -1.572499444E+02  1.631612527E+02  3.303624740E-06  0.00000E+00  9.000E+00
      13     1     6     6     0     0 -2.739366782E+01 -2.616961200E+01 -1.439006144E+02  1.488040606E+02  2.697398305E-06  0.00000E+00  9.000E+00
     -14     1     6     6     0     0 -7.879968715E+01  5.942815312E+01 -4.460490355E+02  4.568378685E+02  5.394796609E-06  0.00000E+00  9.000E+00
       5     1     3     3   502     0 -9.825745645E+00 -6.315497726E+01 -3.855924991E+02  3.908826349E+02  4.750000000E+00  0.00000E+00  9.000E+00
      -5     1     4     4     0   504  7.977050195E+00 -6.005009999E+01 -3.619271493E+02  3.669924682E+02  4.750000000E+00  0.00000E+00  9.000E+00
      21     1     1     2   504   512  7.865773783E+01  3.250549759E+01  2.984210649E+01  9.018979107E+01  2.633419279E-06  0.00000E+00  9.000E+00
</event>
<event>
     13  10001  1.00000E+00  9.90988E+01 -1.00000E+00  1.26400E-01
      21    -1     0     0   502   503  0.000000000E+00  0.000000000E+00  7.500206858E+02  7.500206858E+02  0.000000000E+00  0.00000E+00  9.000E+00
      21    -1     0     0   511   504  0.000000000E+00  0.000000000E+00 -3.488745625E+02  3.488745625E+02  0.000000000E+00  0.00000E+00  9.000E+00
       6     2     1     2   502     0 -9.655519316E+01  2.759080291E+01  1.650939740E+02  2.586970776E+02  1.720000000E+02  0.00000E+00  9.000E+00
      -6     2     1     2     0   504 -2.109433552E+00 -3.685692770E+01  5.149754238E+02  5.441935041E+02  1.720000000E+02  0.00000E+00  9.000E+00
      24     2     3     3     0     0 -1.223752592E+02  6.082013308E+00  7.875540080E+01  1.659273867E+02  7.947823322E+01  0.00000E+00  9.000E+00
     -24     2     4     4     0     0 -5.011898624E+01 -3.492008278E+01  4.597196099E+02  4.708147880E+02  8.119802870E+01  0.00000E+00  9.000E+00
     -11     1     5     5     0     0 -4.083441832E+01 -3.102422451E+01  5.054192817E+01  7.200304666E+01  9.536743164E-07  0.00000E+00  9.000E+00
      12     1     5     5     0     0 -8.154084086E+01  3.710623782E+01  2.821347263E+01  9.392434003E+01  1.784161275E-06  0.00000E+00  9.000E+00
      13     1     6     6     0     0 -3.747431374E+01  8.438685787E+00  8.371346355E+01  9.210580648E+01  1.907348633E-06  0.00000E+00  9.000E+00
     -14     1     6     6     0     0 -1.264467250E+01 -4.335876857E+01  3.760061464E+02  3.787089815E+02  0.000000000E+00  0.00000E+00  9.000E+00
       5     1     3     3   502     0  2.582006602E+01  2.150878960E+01  8.633857316E+01  9.276969092E+01  4.750000000E+00  0.00000E+00  9.000E+00
      -5     1     4     4     0   504  4.800955269E+01 -1.936844914E+00  5.525581384E+01  7.337871613E+01  4.750000000E+00  0.00000E+00  9.000E+00
      21     1     1     2   511   503  9.866462671E+01  9.266124787E+00 -2.789232744E+02  2.960046666E+02  5.394796609E-06  0.00000E+00  9.000E+00
</event>
<event>
     13  10001  1.00000E+00  4.96570E+02 -1.00000E+00  1.00442E-01
      21    -1     0     0   503   512  0.000000000E+00  0.000000000E+00  9.312854956E+02  9.312854956E+02  0.000000000E+00  0.00000E+00  9.000E+00
      21    -1     0     0   502   503  0.000000000E+00  0.000000000E+00 -3.603351711E+02  3.603351711E+02  0.000000000E+00  0.00000E+00  9.000E+00
       6     2     1     2   502     0  2.781361820E+02 -1.836964163E+02  1.114029531E+02  3.912783243E+02  1.720000000E+02  0.00000E+00  9.000E+00
      -6     2     1     2     0   504  2.051206837E+02  6.948167522E+01  1.875560980E+02  3.341608714E+02  1.720000000E+02  0.00000E+00  9.000E+00
      24     2     3     3     0     0  1.825408887E+02 -1.233539169E+02  2.872158699E+00  2.344944821E+02  8.026236970E+01  0.00000E+00  9.000E+00
     -24     2     4     4     0     0  2.161896083E+02  6.675585341E+01  1.254528225E+02  2.708415969E+02  8.014030956E+01  0.00000E+00  9.000E+00
     -11     1     5     5     0     0  1.278458142E+02 -1.027809723E+02 -3.101376972E+01  1.669441056E+02  2.676241913E-06  0.00000E+00  9.000E+00
      12     1     5     5     0     0  5.469507448E+01 -2.057294453E+01  3.388592842E+01  6.755037649E+01  4.768371582E-07  0.00000E+00  9.000E+00
      13     1     6     6     0     0  5.646300282E+01  5.532875800E+01  3.091257695E+01  8.488185650E+01  1.118282261E-06  0.00000E+00  9.000E+00
     -14     1     6     6     0     0  1.597266055E+02  1.142709541E+01  9.454024553E+01  1.859597404E+02  3.303624740E-06  0.00000E+00  9.000E+00
       5     1     3     3   502     0  9.559529330E+01 -6.034249938E+01  1.085307944E+02  1.567838421E+02  4.750000000E+00  0.00000E+00  9.000E+00
      -5     1     4     4     0   504 -1.106892461E+01  2.725821805E+00  6.210327552E+01  6.331927453E+01  4.750000000E+00  0.00000E+00  9.000E+00
      21     1     1     2   504   512 -4.832568657E+02  1.142147410E+02  2.719912735E+02  5.661814710E+02  3.814697266E-06  0.00000E+00  9.000E+00
</event>
<event>
     13  10001  1.00000E+00  6.60398E+01 -1.00000E+00  1.35262E-01
      21    -1     0     0   502   503  0.000000000E+00  0.000000000E+00  2.114765891E+02  2.114765891E+02  0.000000000E+00  0.00000E+00  9.000E+00
      21    -1     0     0   503   511  0.000000000E+00  0.000000000E+00 -3.589725759E+02  3.589725759E+02  0.000000000E+00  0.00000E+00  9.000E+00
       6     2     1     2   502     0  2.965792486E+01 -6.983794192E+00  8.497554413E+01  1.942503771E+02  1.720000000E+02  0.00000E+00  9.000E+00
      -6     2     1     2     0   504 -1.782949767E+01  7.195561139E+01 -6.850096165E+01  1.994288914E+02  1.720000000E+02  0.00000E+00  9.000E+00
      24     2     3     3     0     0 -1.053987430E+01 -2.991846995E+01  1.113851657E+02  1.407537134E+02  7.999218028E+01  0.00000E+00  9.000E+00
     -24     2     4     4     0     0 -1.122233847E+01  5.362470407E-01 -9.293454270E+01  1.235082583E+02  8.056818352E+01  0.00000E+00  9.000E+00
     -11     1     5     5     0     0  1.239553345E+01 -5.173616969E+01  8.076565539E+01  9.671283056E+01  2.336015456E-06  0.00000E+00  9.000E+00
      12     1     5     5     0     0 -2.293540776E+01  2.181769974E+01  3.061951032E+01  4.404088286E+01  6.743495762E-07  0.00000E+00  9.000E+00
      13     1     6     6     0     0 -4.064639036E+01  7.266278420E+00 -8.125322444E+01  9.114282382E+01  1.907348633E-06  0.00000E+00  9.000E+00
     -14     1     6     6     0     0  2.942405189E+01 -6.730031379E+00 -1.168131827E+01  3.236543447E+01  0.000000000E+00  0.00000E+00  9.000E+00
       5     1     3     3   502     0  4.019779917E+01  2.293467576E+01 -2.640962157E+01  5.349666365E+01  4.750000000E+00  0.00000E+00  9.000E+00
      -5     1     4     4     0   504 -6.607159202E+00  7.141936435E+01  2.443358105E+01  7.592063316E+01  4.750000000E+00  0.00000E+00  9.000E+00
      21     1     1     2   504   511 -1.182842719E+01 -6.497181720E+01 -1.639705693E+02  1.767698965E+02  1.907348633E-06  0.00000E+00  9.000E+00
</event>
<event>
     13  10001  1.00000E+00  1.54443E+02 -1.00000E+00  1.17976E-01
      21    -1     0     0   503   504  0.000000000E+00  0.000000000E+00  5.311860255E+02  5.311860255E+02  0.000000000E+00  0.00000E+00  9.000E+00
       1    -1     0     0   502     0  0.000000000E+00  0.000000000E+00 -7.377914207E+02  7.377914207E+02  0.000000000E+00  0.00000E+00  9.000E+00
       6     2     1     2   502     0  1.470429419E+02 -5.433485255E+01 -6.540710839E+00  2.328104032E+02  1.720000000E+02  0.00000E+00  9.000E+00
      -6     2     1     2     0   504 -6.510536866E+01  1.852506973E+02  3.659213662E+02  4.494874594E+02  1.720000000E+02  0.00000E+00  9.000E+00
      24     2     3     3     0     0  6.926080681E+01  7.887890031E+00  5.081452963E+01  1.177716431E+02  8.017958171E+01  0.00000E+00  9.000E+00
     -24     2     4     4     0     0 -4.956844074E+01  1.756178067E+02  3.778458395E+02  4.271503989E+02  7.994585969E+01  0.00000E+00  9.000E+00
     -11     1     5     5     0     0  8.510633023E+01  1.137921110E+01  2.909208303E+01  9.065827698E+01  1.168007728E-06  0.00000E+00  9.000E+00
      12     1     5     5     0     0 -1.584552342E+01 -3.491321069E+00  2.172244660E+01  2.711336610E+01  3.371747881E-07  0.00000E+00  9.000E+00
      13     1     6     6     0     0 -6.554757936E+01  1.080053842E+02  2.796290672E+02  3.068453412E+02  6.607249480E-06  0.00000E+00  9.000E+00
     -14     1     6     6     0     0  1.597913862E+01  6.761242251E+01  9.821677228E+01  1.203050577E+02  1.348699152E-06  0.00000E+00  9.000E+00
       5     1     3     3   502     0  7.778213505E+01 -6.222274258E+01 -5.735524047E+01  1.150387602E+02  4.750000000E+00  0.00000E+00  9.000E+00
      -5     1     4     4     0   504 -1.553692791E+01  9.632890581E+00 -1.192447326E+01  2.233706051E+01  4.750000000E+00  0.00000E+00  9.000E+00
       1     1     1     2   503     0 -8.193757321E+01 -1.309158448E+02 -5.659860506E+02  5.866795836E+02  7.629394531E-06  0.00000E+00  9.000E+00
</event>
<event>
     13  10001  1.00000E+00  8.68934E+00 -1.00000E+00  2.09808E-01
      21    -1     0     0   502   503  0.000000000E+00  0.000000000E+00  1.361339142E+03  1.361339142E+03  0.000000000E+00  0.00000E+00  9.000E+00
      21    -1     0     0   503   511  0.000000000E+00  0.000000000E+00 -6.089406602E+01  6.089406602E+01  0.000000000E+00  0.00000E+00  9.000E+00
       6     2     1     2   502     0  6.867266018E+01 -9.158267238E+01  1.116469077E+03  1.135425259E+03  1.720000000E+02  0.00000E+00  9.000E+00
      -6     2     1     2     0   504 -7.724025185E+01  9.013319056E+01  1.834893394E+02  2.781049913E+02  1.720000000E+02  0.00000E+00  9.000E+00
      24     2     3     3     0     0  9.224625348E+00  1.053518087E+01  2.687603525E+02  2.795077583E+02  7.547434097E+01  0.00000E+00  9.000E+00
     -24     2     4     4     0     0 -1.188907395E+02  6.778834464E+01  1.579577355E+02  2.241746608E+02  8.107628940E+01  0.00000E+00  9.000E+00
     -11     1     5     5     0     0 -3.239849916E+01  1.205585149E+01  1.055534037E+02  1.110699210E+02  1.907348633E-06  0.00000E+00  9.000E+00
      12     1     5     5     0     0  4.162312451E+01 -1.520670622E+00  1.632069487E+02  1.684378373E+02  1.907348633E-06  0.00000E+00  9.000E+00
      13     1     6     6     0     0 -1.036908001E+02  3.670328255E+01  7.187062295E+01  1.313936811E+02  3.814697266E-06  0.00000E+00  9.000E+00
     -14     1     6     6     0     0 -1.519993940E+01  3.108506209E+01  8.608711259E+01  9.278097971E+01  1.348699152E-06  0.00000E+00  9.000E+00
       5     1     3     3   502     0  5.944803484E+01 -1.021178533E+02  8.477087243E+02  8.559175010E+02  4.750000000E+00  0.00000E+00  9.000E+00
      -5     1     4     4     0   504  4.165048766E+01  2.234484591E+01  2.553160385E+01  5.393033058E+01  4.750000000E+00  0.00000E+00  9.000E+00
      21     1     1     2   504   511  8.567591670E+00  1.449481823E+00  4.866595894E-01  8.702957091E+00  1.278594308E-07  0.00000E+00  9.000E+00
</event>
<event>
     13  10001  1.00000E+00  3.86106E+01 -1.00000E+00  1.49149E-01
      21    -1     0     0   503   512  0.000000000E+00  0.000000000E+00  5.309137151E+02  5.309137151E+02  0.000000000E+00  0.00000E+00  9.000E+00
      21    -1     0     0   502   503  0.000000000E+00  0.000000000E+00 -2.211015988E+02  2.211015988E+02  0.000000000E+00  0.00000E+00  9.000E+00
       6     2     1     2   502     0 -1.710180969E+02  1.951880388E+02  1.592701295E+02  3.497092136E+02  1.720000000E+02  0.00000E+00  9.000E+00
      -6     2     1     2     0   504  1.879235491E+02 -1.604751915E+02  6.438217169E+01  3.078905835E+02  1.720000000E+02  0.00000E+00  9.000E+00
      24     2     3     3     0     0 -1.393025453E+02  1.071448917E+02  1.693763538E+02  2.554639473E+02  7.542050241E+01  0.00000E+00  9.000E+00
     -24     2     4     4     0     0  1.983429893E+02 -1.500857153E+02  2.150909597E+01  2.623146132E+02  8.050249503E+01  0.00000E+00  9.000E+00
     -11     1     5     5     0     0 -1.222164601E+02  1.180509654E+02  1.589224509E+02  2.326569125E+02  3.303624740E-06  0.00000E+00  9.000E+00
      12     1     5     5     0     0 -1.708608518E+01 -1.090607362E+01  1.045390292E+01  2.280703477E+01  6.529361695E-07  0.00000E+00  9.000E+00
      13     1     6     6     0     0  7.717400239E+01 -5.674808885E+01 -3.087058382E+01  1.006437538E+02  1.877309769E-06  0.00000E+00  9.000E+00
     -14     1     6     6     0     0  1.211689870E+02 -9.333762648E+01  5.237967979E+01  1.616708594E+02  3.015782986E-06  0.00000E+00  9.000E+00
       5     1     3     3   502     0 -3.171555160E+01  8.804314708E+01 -1.010622432E+01  9.424526635E+01  4.750000000E+00  0.00000E+00  9.000E+00
      -5     1     4     4     0   504 -1.041944026E+01 -1.038947615E+01  4.287307572E+01  4.557597033E+01  4.750000000E+00  0.00000E+00  9.000E+00
      21     1     1     2   504   512 -1.690545222E+01 -3.471284734E+01  8.615981503E+01  9.441551680E+01  1.651812370E-06  0.00000E+00  9.000E+00
</event>
<event>
     13  10001  1.00000E+00  2.94233E+00 -1.00000E+00  3.14955E-01
      -1    -1     0     0     0   512  0.000000000E+00  0.000000000E+00  1.120112083E+02  1.120112083E+02  0.000000000E+00  0.00000E+00  9.000E+00
       1    -1     0     0   511     0  0.000000000E+00  0.000000000E+00 -4.596117959E+02  4.596117959E+02  0.000000000E+00  0.00000E+00  9.000E+00
       6     2     1     2   502     0  3.898772837E+01 -2.770544287E+01 -8.947296599E+00  1.787503529E+02  1.720000000E+02  0.00000E+00  9.000E+00
      -6     2     1     2     0   512 -4.191985446E+01  2.795021564E+01 -2.694908896E+02  3.236476917E+02  1.720000000E+02  0.00000E+00  9.000E+00
      24     2     3     3     0     0 -4.346514311E+01 -2.995753188E+01  1.119459690E+01  9.371032526E+01  7.661353456E+01  0.00000E+00  9.000E+00
     -24     2     4     4     0     0  1.400373452E+01 -3.167202001E+01 -1.900504933E+02  2.095617685E+02  8.122637139E+01  0.00000E+00  9.000E+00
     -11     1     5     5     0     0  5.681191849E+00 -4.034334778E+01 -4.729353379E+00  4.101497817E+01  7.839767002E-07  0.00000E+00  9.000E+00
      12     1     5     5     0     0 -4.914633496E+01  1.038581590E+01  1.592395028E+01  5.269534708E+01  6.951036328E-07  0.00000E+00  9.000E+00
      13     1     6     6     0     0 -2.778591238E+01  9.727908531E+00 -6.624304676E+01  7.249020882E+01  9.536743164E-07  0.00000E+00  9.000E+00
     -14     1     6     6     0     0  4.178964690E+01 -4.139992854E+01 -1.238074465E+02  1.370715597E+02  2.336015456E-06  0.00000E+00  9.000E+00
       5     1     3     3   502     0  8.245287148E+01  2.252089007E+00 -2.014189350E+01  8.504002760E+01  4.750000000E+00  0.00000E+00  9.000E+00
      -5     1     4     4     0   512 -5.592358898E+01  5.962223565E+01 -7.944039631E+01  1.140859231E+02  4.750000000E+00  0.00000E+00  9.000E+00
      21     1     1     2   511   502  2.932126092E+00 -2.447727665E-01 -6.916240137E+01  6.922495966E+01  9.536743164E-07  0.00000E+00  9.000E+00
</event>
<event>
     13  10001  1.00000E+00  1.29158E+02 -1.00000E+00  1.21229E-01
      21    -1     0     0   502   503  0.000000000E+00  0.000000000E+00  1.109379557E+02  1.109379557E+02  0.000000000E+00  0.00000E+00  9.000E+00
      21    -1     0     0   503   512  0.000000000E+00  0.000000000E+00 -1.440093578E+03  1.440093578E+03  0.000000000E+00  0.00000E+00  9.000E+00
       6     2     1     2   502     0  1.980860489E+02 -6.850719323E+01 -3.125509318E+02  4.137673299E+02  1.720000000E+02  0.00000E+00  9.000E+00
      -6     2     1     2     0   504 -1.707538149E+02  1.947396869E+02 -3.965528158E+02  5.039033109E+02  1.720000000E+02  0.00000E+00  9.000E+00
      24     2     3     3     0     0 -8.708411538E+00  1.395019616E+01 -1.136146085E+02  1.151682790E+02  9.220023026E+00  0.00000E+00  9.000E+00
     -24     2     4     4     0     0 -3.632509849E+01  4.299612998E+01 -1.289794959E+02  1.681724203E+02  9.207644976E+01  0.00000E+00  9.000E+00
     -11     1     5     5     0     0 -8.257223571E+00  5.381643800E+00 -7.258113631E+01  7.324728786E+01  9.536743164E-07  0.00000E+00  9.000E+00
      12     1     5     5     0     0 -4.511879668E-01  8.568552362E+00 -4.103347220E+01  4.192099117E+01  9.536743164E-07  0.00000E+00  9.000E+00
      13     1     6     6     0     0 -7.772022208E+00  1.799961249E+01 -1.287385997E+02  1.302229528E+02  0.000000000E+00  0.00000E+00  9.000E+00
     -14     1     6     6     0     0 -2.855307628E+01  2.499651749E+01 -2.408962138E-01  3.794946749E+01  1.379363878E-07  0.00000E+00  9.000E+00
       5     1     3     3   502     0  2.067944604E+02 -8.245738939E+01 -1.989363233E+02  2.985990509E+02  4.750000000E+00  0.00000E+00  9.000E+00
      -5     1     4     4     0   504 -1.344287164E+02  1.517435570E+02 -2.675733199E+02  3.357308906E+02  4.750000000E+00  0.00000E+00  9.000E+00
      21     1     1     2   504   512 -2.733223397E+01 -1.262324937E+02 -6.200518743E+02  6.333608926E+02  7.629394531E-06  0.00000E+00  9.000E+00
</event>
<event>
     13  10001  1.00000E+00  3.98127E+02 -1.00000E+00  1.03341E-01
      21    -1     0     0   511   512  0.000000000E+00  0.000000000E+00  3.369113696E+02  3.369113696E+02  0.000000000E+00  0.00000E+00  9.000E+00
       2    -1     0     0   502     0  0.000000000E+00  0.000000000E+00 -1.372590778E+03  1.372590778E+03  0.000000000E+00  0.00000E+00  9.000E+00
       6     2     1     2   502     0 -1.429938307E+02 -1.148748344E+01  1.609601010E+02  2.758103551E+02  1.720000000E+02  0.00000E+00  9.000E+00
      -6     2     1     2     0   512 -2.226945652E+01 -3.507186185E+02 -5.750564407E+02  6.955382003E+02  1.720000000E+02  0.00000E+00  9.000E+00
      24     2     3     3     0     0 -7.377806277E+01  2.360092921E+01  1.634579352E+02  1.980233324E+02  8.058869137E+01  0.00000E+00  9.000E+00
     -24     2     4     4     0     0  7.622646805E-01 -3.424771464E+02 -5.703545415E+02  6.701797224E+02  8.090352586E+01  0.00000E+00  9.000E+00
     -11     1     5     5     0     0  5.402482680E+00 -1.955385019E+01  1.940556244E+01  2.807339898E+01  8.259061849E-07  0.00000E+00  9.000E+00
      12     1     5     5     0     0 -7.918054545E+01  4.315477940E+01  1.440523728E+02  1.699499334E+02  5.722045898E-06  0.00000E+00  9.000E+00
      13     1     6     6     0     0  6.329076715E+00 -2.031850729E+01 -8.490846438E+01  8.753482892E+01  1.651812370E-06  0.00000E+00  9.000E+00
     -14     1     6     6     0     0 -5.566812034E+00 -3.221586391E+02 -4.854460771E+02  5.826448935E+02  5.394796609E-06  0.00000E+00  9.000E+00
       5     1     3     3   502     0 -6.921576793E+01 -3.508841265E+01 -2.497834239E+00  7.778702275E+01  4.750000000E+00  0.00000E+00  9.000E+00
      -5     1     4     4     0   512 -2.303172120E+01 -8.241472127E+00 -4.701899229E+00  2.535847788E+01  4.750000000E+00  0.00000E+00  9.000E+00
       2     1     1     2   511     0  1.652632872E+02  3.622061019E+02 -6.215830686E+02  7.381535921E+02  0.000000000E+00  0.00000E+00  9.000E+00
</event>
<event>
     13  10001  1.00000E+00  7.15991E+00 -1.00000E+00  2.21705E-01
      -2    -1     0     0     0   512  0.000000000E+00  0.000000000E+00  1.638207049E+02  1.638207049E+02  0.000000000E+00  0.00000E+00  9.000E+00
       2    -1     0     0   513     0  0.000000000E+00  0.000000000E+00 -3.000747526E+02  3.000747526E+02  0.000000000E+00  0.00000E+00  9.000E+00
       6     2     1     2   502     0 -3.003125857E+01  4.266715462E+01 -1.717650230E+02  2.486153368E+02  1.720000000E+02  0.00000E+00  9.000E+00
      -6     2     1     2     0   512  3.424734868E+01 -4.845411828E+01  5.856479791E+01  1.911400482E+02  1.720000000E+02  0.00000E+00  9.000E+00
      24     2     3     3     0     0 -3.222279985E+01  8.397347401E+01 -7.072410520E+01  1.393320149E+02  7.950885587E+01  0.00000E+00  9.000E+00
     -24     2     4     4     0     0 -4.656669004E+01 -1.993328037E+01  3.602667777E+01  1.023995478E+02  8.137538690E+01  0.00000E+00  9.000E+00
     -11     1     5     5     0     0 -4.389732146E+01  1.349962473E+01 -1.369276877E+01  4.792396703E+01  1.440411326E-06  0.00000E+00  9.000E+00
      12     1     5     5     0     0  1.167452161E+01  7.047384927E+01 -5.703133643E+01  9.140804790E+01  2.023048729E-06  0.00000E+00  9.000E+00
      13     1     6     6     0     0  1.211037284E+01 -2.702844906E+01  3.132279474E+01  4.310818552E+01  9.536743164E-07  0.00000E+00  9.000E+00
     -14     1     6     6     0     0 -5.867706288E+01  7.095168685E+00  4.703883029E+00  5.929136229E+01  7.127678837E-07  0.00000E+00  9.000E+00
       5     1     3     3   502     0  2.191541275E+00 -4.130631938E+01 -1.010409178E+02  1.092833219E+02  4.750000000E+00  0.00000E+00  9.000E+00
      -5     1     4     4     0   512  8.081403872E+01 -2.852083790E+01  2.253812014E+01  8.874050038E+01  4.750000000E+00  0.00000E+00  9.000E+00
      21     1     1     2   513   502 -4.216090108E+00  5.786963652E+00 -2.305382266E+01  2.414007257E+01  3.371747881E-07  0.00000E+00  9.000E+00
</event>
<event>
     13  10001  1.00000E+00  1.63697E+02 -1.00000E+00  1.16956E-01
      21    -1     0     0   503   504  0.000000000E+00  0.000000000E+00  2.543834301E+02  2.543834301E+02  0.000000000E+00  0.00000E+00  9.000E+00
      -4    -1     0     0     0   503  0.000000000E+00  0.000000000E+00 -8.069669589E+02  8.069669589E+02  0.000000000E+00  0.00000E+00  9.000E+00
       6     2     1     2   502     0 -4.579961151E+01  9.254387786E+01  1.194900531E+02  2.335034187E+02  1.720000000E+02  0.00000E+00  9.000E+00
      -6     2     1     2     0   504 -9.547824468E+01 -9.857032914E+00 -7.836836476E+01  2.119878697E+02  1.720000000E+02  0.00000E+00  9.000E+00
      24     2     3     3     0     0 -2.653799334E+01  1.108813166E+02  1.435708395E+02  1.973133874E+02  7.294556483E+01  0.00000E+00  9.000E+00
     -24     2     4     4     0     0 -5.793740351E+01  5.516410405E+01 -1.781723962E+01  1.154163197E+02  8.126285579E+01  0.00000E+00  9.000E+00
     -11     1     5     5     0     0 -5.451892484E+00  9.121818196E+01  1.414549548E+02  1.684042283E+02  1.907348633E-06  0.00000E+00  9.000E+00
      12     1     5     5     0     0 -2.108610086E+01  1.966313461E+01  2.115884654E+00  2.890915910E+01  4.420398764E-07  0.00000E+00  9.000E+00
      13     1     6     6     0     0 -3.718244818E+01  3.205218405E+01 -5.042945863E+01  7.037760477E+01  1.651812370E-06  0.00000E+00  9.000E+00
     -14     1     6     6     0     0 -2.075495533E+01  2.311192000E+01  3.261221901E+01  4.503871496E+01  1.348699152E-06  0.00000E+00  9.000E+00
       5     1     3     3   502     0 -1.926161817E+01 -1.833743871E+01 -2.408078639E+01  3.619003131E+01  4.750000000E+00  0.00000E+00  9.000E+00
      -5     1     4     4     0   504 -3.754084118E+01 -6.502113697E+01 -6.055112514E+01  9.657154998E+01  4.750000000E+00  0.00000E+00  9.000E+00
      -4     1     1     2     0   502  1.412778562E+02 -8.268684495E+01 -5.937052171E+02  6.158591006E+02  0.000000000E+00  0.00000E+00  9.000E+00
</event>
<event>
     13  10001  1.00000E+00  4.77527E+01 -1.00000E+00  1.43314E-01
       2    -1     0     0   511     0  0.000000000E+00  0.000000000E+00  7.658978166E+02  7.658978166E+02  0.000000000E+00  0.00000E+00  9.000E+00
      -2    -1     0     0     0   512  0.000000000E+00  0.000000000E+00 -8.898870743E+02  8.898870743E+02  0.000000000E+00  0.00000E+00  9.000E+00
       6     2     1     2   502     0 -1.320215013E+02  1.025138778E+02 -7.709442636E+02  8.073895154E+02  1.720000000E+02  0.00000E+00  9.000E+00
      -6     2     1     2     0   512  1.521394052E+02 -5.920577407E+01  4.111768655E+01  2.406790112E+02  1.720000000E+02  0.00000E+00  9.000E+00
      24     2     3     3     0     0 -1.400381594E+02  2.682540605E+01 -5.273566381E+02  5.521435451E+02  8.016970798E+01  0.00000E+00  9.000E+00
     -24     2     4     4     0     0  8.999057711E+01  3.290297579E+01  2.167903639E+01  1.277767426E+02  8.170682685E+01  0.00000E+00  9.000E+00
     -11     1     5     5     0     0 -3.282446086E+01  8.485242877E+00 -3.835765165E+01  5.119330051E+01  1.966049969E-06  0.00000E+00  9.000E+00
      12     1     5     5     0     0 -1.072136986E+02  1.834016317E+01 -4.889989865E+02  5.009502445E+02  5.394796609E-06  0.00000E+00  9.000E+00
      13     1     6     6     0     0  1.588609869E+01 -4.766597453E+00 -2.682005608E+01  3.153417180E+01  0.000000000E+00  0.00000E+00  9.000E+00
     -14     1     6     6     0     0  7.410447842E+01  3.766957324E+01  4.849909247E+01  9.624257083E+01  2.431401974E-06  0.00000E+00  9.000E+00
       5     1     3     3   502     0  8.016658170E+00  7.568847177E+01 -2.435876255E+02  2.552459703E+02  4.750000000E+00  0.00000E+00  9.000E+00
      -5     1     4     4     0   512  6.214882810E+01 -9.210874986E+01  1.943865016E+01  1.129022686E+02  4.750000000E+00  0.00000E+00  9.000E+00
      21     1     1     2   511   502 -2.011790393E+01 -4.330810375E+01  6.058373193E+02  6.077163643E+02  1.078959322E-05  0.00000E+00  9.000E+00
</event>
<event>
     13  10001  1.00000E+00  2.02508E+02 -1.00000E+00  1.13373E-01
      21    -1     0     0   512   504  0.000000000E+00  0.000000000E+00  6.208103594E+02  6.208103594E+02  0.000000000E+00  0.00000E+00  9.000E+00
      21    -1     0     0   502   503  0.000000000E+00  0.000000000E+00 -2.875203815E+02  2.875203815E+02  0.000000000E+00  0.00000E+00  9.000E+00
       6     2     1     2   502     0 -2.980615978E+01 -1.422123654E+02  2.314467125E+01  2.263458412E+02  1.720000000E+02  0.00000E+00  9.000E+00
      -6     2     1     2     0   504 -1.173103780E+02  3.050337567E+00 -9.513811348E+01  2.289242014E+02  1.720000000E+02  0.00000E+00  9.000E+00
      24     2     3     3     0     0 -3.344660107E+00 -1.660153488E+02  3.322057288E+01  1.890513473E+02  8.405071489E+01  0.00000E+00  9.000E+00
     -24     2     4     4     0     0 -8.833012866E+01  9.188546101E+00  1.010107160E+01  1.194921173E+02  7.930758752E+01  0.00000E+00  9.000E+00
     -11     1     5     5     0     0 -4.192724046E+01 -6.378264848E+01  6.797733248E+00  7.663112238E+01  2.173731629E-06  0.00000E+00  9.000E+00
      12     1     5     5     0     0  3.858258036E+01 -1.022327003E+02  2.642283964E+01  1.124202249E+02  2.023048729E-06  0.00000E+00  9.000E+00
      13     1     6     6     0     0 -9.568937935E+01  2.341800267E+01 -3.355634903E+00  9.857038325E+01  1.077014863E-06  0.00000E+00  9.000E+00
     -14     1     6     6     0     0  7.359250693E+00 -1.422945657E+01  1.345670650E+01  2.092173403E+01  5.591411304E-07  0.00000E+00  9.000E+00
       5     1     3     3   502     0 -2.646149967E+01  2.380298338E+01 -1.007590163E+01  3.729449392E+01  4.750000000E+00  0.00000E+00  9.000E+00
      -5     1     4     4     0   504 -2.898024935E+01 -6.138208534E+00 -1.052391851E+02  1.094320841E+02  4.750000000E+00  0.00000E+00  9.000E+00
      21     1     1     2   512   503  1.471165378E+02  1.391620279E+02  4.052834202E+02  4.530606983E+02  0.000000000E+00  0.00000E+00  9.000E+00
</event>
<event>
     13  10001  1.00000E+00  6.29336E+01 -1.00000E+00  1.36400E-01
      21    -1     0     0   511   512  0.000000000E+00  0.000000000E+00  3.084687692E+02  3.084687692E+02  0.000000000E+00  0.00000E+00  9.000E+00
       1    -1     0     0   502     0  0.000000000E+00  0.000000000E+00 -3.059146057E+02  3.059146057E+02  0.000000000E+00  0.00000E+00  9.000E+00
       6     2     1     2   502     0  1.107746058E+02 -1.430553391E+02 -1.905106111E+01  2.503653056E+02  1.720000000E+02  0.00000E+00  9.000E+00
      -6     2     1     2     0   512 -1.115827836E+02  2.059837931E+02 -1.535765317E+01  2.910324692E+02  1.720000000E+02  0.00000E+00  9.000E+00
      24     2     3     3     0     0  1.328640275E+02 -1.182149634E+02  2.369896185E+01  1.960043474E+02  7.892044110E+01  0.00000E+00  9.000E+00
     -24     2     4     4     0     0 -5.132203531E+01  2.082261375E+02 -1.874548106E+00  2.290587448E+02  8.045072395E+01  0.00000E+00  9.000E+00
     -11     1     5     5     0     0  4.531664565E+01 -8.170520455E+01 -1.293234692E+01  9.432170705E+01  1.155776944E-06  0.00000E+00  9.000E+00
      12     1     5     5     0     0  8.754738187E+01 -3.650975881E+01  3.663130877E+01  1.016826403E+02  9.536743164E-07  0.00000E+00  9.000E+00
      13     1     6     6     0     0 -6.780454562E+01  1.526728112E+02 -2.023345240E+01  1.682731003E+02  2.336015456E-06  0.00000E+00  9.000E+00
     -14     1     6     6     0     0  1.648251031E+01  5.555332638E+01  1.835890429E+01  6.078564456E+01  2.198110689E-06  0.00000E+00  9.000E+00
       5     1     3     3   502     0 -2.208942173E+01 -2.484037570E+01 -4.275002296E+01  5.436095823E+01  4.750000000E+00  0.00000E+00  9.000E+00
      -5     1     4     4     0   512 -6.026074828E+01 -2.242344429E+00 -1.348310506E+01  6.197372438E+01  4.750000000E+00  0.00000E+00  9.000E+00
       1     1     1     2   511     0  8.081778014E-01 -6.292845405E+01  3.696287780E+01  7.298560005E+01  1.651812370E-06  0.00000E+00  9.000E+00
</event>
<event>
     13  10001  1.00000E+00  3.96553E+01 -1.00000E+00  1.48390E-01
      21    -1     0     0   512   503  0.000000000E+00  0.000000000E+00  2.434574888E+02  2.434574888E+02  0.000000000E+00  0.00000E+00  9.000E+00
      21    -1     0     0   503   504  0.000000000E+00  0.000000000E+00 -3.916742241E+02  3.916742241E+02  0.000000000E+00  0.00000E+00  9.000E+00
       6     2     1     2   502     0  2.888387774E+00  1.993658200E+01 -5.236643722E+01  1.809200205E+02  1.720000000E+02  0.00000E+00  9.000E+00
      -6     2     1     2     0   504 -2.663296942E+00 -5.959128199E+01 -2.419701120E+02  3.028064549E+02  1.720000000E+02  0.00000E+00  9.000E+00
      24     2     3     3     0     0 -2.004932662E+01  2.642767142E+00 -9.642336563E+01  1.281110231E+02  8.189022573E+01  0.00000E+00  9.000E+00
     -24     2     4     4     0     0  2.751941988E+00 -1.038641399E+02 -2.108113220E+02  2.481910408E+02  7.976243796E+01  0.00000E+00  9.000E+00
     -11     1     5     5     0     0 -1.780164826E+00 -2.334415878E+01 -9.329910606E+01  9.619169365E+01  2.336015456E-06  0.00000E+00  9.000E+00
      12     1     5     5     0     0 -1.826916180E+01  2.598692592E+01 -3.124259578E+00  3.191932940E+01  2.563692709E-07  0.00000E+00  9.000E+00
      13     1     6     6     0     0 -1.901363296E+01  1.391503012E+00 -6.030032328E+01  6.324226045E+01  1.168007728E-06  0.00000E+00  9.000E+00
     -14     1     6     6     0     0  2.176557495E+01 -1.052556429E+02 -1.505109987E+02  1.849487804E+02  1.907348633E-06  0.00000E+00  9.000E+00
       5     1     3     3   502     0  2.293771440E+01  1.729381486E+01  4.405692842E+01  5.280899749E+01  4.750000000E+00  0.00000E+00  9.000E+00
      -5     1     4     4     0   504 -5.415238930E+00  4.427285794E+01 -3.115878996E+01  5.461541407E+01  4.750000000E+00  0.00000E+00  9.000E+00
      21     1     1     2   512   502 -2.250908317E-01  3.965469998E+01  1.461198139E+02  1.514052374E+02  2.697398305E-06  0.00000E+00  9.000E+00
</event>
<event>
     13  10001  1.00000E+00  4.47581E+01 -1.00000E+00  1.45042E-01
      21    -1     0     0   511   503  0.000000000E+00  0.000000000E+00  1.421466657E+02  1.421466657E+02  0.000000000E+00  0.00000E+00  9.000E+00
      21    -1     0     0   503   504  0.000000000E+00  0.000000000E+00 -8.569804080E+02  8.569804080E+02  0.000000000E+00  0.00000E+00  9.000E+00
       6     2     1     2   502     0 -1.842486621E+02 -2.477176760E+01 -1.047623972E+02  2.740809549E+02  1.720000000E+02  0.00000E+00  9.000E+00
      -6     2     1     2     0   504  2.041962231E+02  6.483898372E+01 -6.209227668E+02  6.789913650E+02  1.720000000E+02  0.00000E+00  9.000E+00
      24     2     3     3     0     0 -8.256661092E+01 -6.352729850E+01 -1.005061969E+02  1.650767878E+02  7.934662779E+01  0.00000E+00  9.000E+00
     -24     2     4     4     0     0  1.196739012E+02  9.232712907E+01 -2.894064244E+02  3.357345095E+02  7.820128507E+01  0.00000E+00  9.000E+00
     -11     1     5     5     0     0 -4.551414738E+01 -1.626907831E+01 -9.266752288E+01  1.045155028E+02  1.348699152E-06  0.00000E+00  9.000E+00
      12     1     5     5     0     0 -3.705246354E+01 -4.725822019E+01 -7.838674061E+00  6.056128500E+01  1.018524616E-06  0.00000E+00  9.000E+00
      13     1     6     6     0     0  5.323879364E+01  5.150202512E+01 -2.171153614E+02  2.294033738E+02  3.814697266E-06  0.00000E+00  9.000E+00
     -14     1     6     6     0     0  6.643510759E+01  4.082510396E+01 -7.229106293E+01  1.063311357E+02  2.523185073E-06  0.00000E+00  9.000E+00
       5     1     3     3   502     0 -1.016820512E+02  3.875553091E+01 -4.256200306E+00  1.090041671E+02  4.750000000E+00  0.00000E+00  9.000E+00
      -5     1     4     4     0   504  8.452232192E+01 -2.748814535E+01 -3.315163425E+02  3.432568555E+02  4.750000000E+00  0.00000E+00  9.000E+00
      21     1     1     2   511   502 -1.994756101E+01 -4.006721613E+01  1.085142174E+01  4.605475385E+01  5.840038640E-07  0.00000E+00  9.000E+00
</event>
<event>
     13  10001  1.00000E+00  9.67883E+01 -1.00000E+00  1.26883E-01
      21    -1     0     0   502   512  0.000000000E+00  0.000000000E+00  4.256880814E+02  4.256880814E+02  0.000000000E+00  0.00000E+00  9.000E+00
      21    -1     0     0   503   504  0.000000000E+00  0.000000000E+00 -2.202118922E+02  2.202118922E+02  0.000000000E+00  0.00000E+00  9.000E+00
       6     2     1     2   502     0  1.152283685E+02  1.198032896E+01  2.287759512E+02  3.087774944E+02  1.720000000E+02  0.00000E+00  9.000E+00
      -6     2     1     2     0   504 -3.110031375E+01  3.587835252E+01 -1.079437453E+02  2.085433716E+02  1.720000000E+02  0.00000E+00  9.000E+00
      24     2     3     3     0     0  7.124517637E+01  9.587358910E+00  4.074611570E+01  1.155987455E+02  8.083954107E+01  0.00000E+00  9.000E+00
     -24     2     4     4     0     0 -8.636553336E+01  1.352962807E+01 -6.497964294E+01  1.349078736E+02  7.959726229E+01  0.00000E+00  9.000E+00
     -11     1     5     5     0     0  2.658342422E+00 -2.632737862E+01  2.538450428E+01  3.666838839E+01  8.920806376E-07  0.00000E+00  9.000E+00
      12     1     5     5     0     0  6.858683395E+01  3.591473753E+01  1.536161142E+01  7.893035708E+01  1.625797951E-06  0.00000E+00  9.000E+00
      13     1     6     6     0     0  5.326314352E+00 -1.315776497E+01 -3.003143984E+01  3.321722118E+01  3.371747881E-07  0.00000E+00  9.000E+00
     -14     1     6     6     0     0 -9.169184771E+01  2.668739304E+01 -3.494820310E+01  1.016906524E+02  2.236564522E-06  0.00000E+00  9.000E+00
       5     1     3     3   502     0  4.398319215E+01  2.392970055E+00  1.880298355E+02  1.931787489E+02  4.750000000E+00  0.00000E+00  9.000E+00
      -5     1     4     4     0   504  5.526521960E+01  2.234872446E+01 -4.296410232E+01  7.363549803E+01  4.750000000E+00  0.00000E+00  9.000E+00
      21     1     1     2   503   512 -8.412805477E+01 -4.785868149E+01  8.464398323E+01  1.285791075E+02  0.000000000E+00  0.00000E+00  9.000E+00
</event>
<event>
     13  10001  1.00000E+00  1.31950E+01 -1.00000E+00  1.88175E-01
      21    -1     0     0   502   511  0.000000000E+00  0.000000000E+00  1.327287125E+03  1.327287125E+03  0.000000000E+00  0.00000E+00  9.000E+00
      21    -1     0     0   503   504  0.000000000E+00  0.000000000E+00 -3.792138423E+02  3.792138423E+02  0.000000000E+00  0.00000E+00  9.000E+00
       6     2     1     2   502     0  1.521080067E+02 -2.204457889E+01 -3.323935783E+02  4.045890508E+02  1.720000000E+02  0.00000E+00  9.000E+00
      -6     2     1     2     0   504 -1.389299851E+02  2.137488337E+01  1.207631125E+03  1.227890614E+03  1.720000000E+02  0.00000E+00  9.000E+00
      24     2     3     3     0     0  8.406111498E+01  5.257706740E+01 -2.134660433E+02  2.484958394E+02  7.969825282E+01  0.00000E+00  9.000E+00
     -24     2     4     4     0     0 -5.469725676E+01  5.182761584E+01  9.268936100E+02  9.331727215E+02  7.747046078E+01  0.00000E+00  9.000E+00
     -11     1     5     5     0     0  7.838083156E+01  1.773186169E+01 -9.274223537E+01  1.227155080E+02  3.015782986E-06  0.00000E+00  9.000E+00
      12     1     5     5     0     0  5.680283418E+00  3.484520572E+01 -1.207238079E+02  1.257803314E+02  3.568322551E-06  0.00000E+00  9.000E+00
      13     1     6     6     0     0 -4.763139061E+01  1.205250809E+01  2.340032200E+02  2.391056655E+02  2.697398305E-06  0.00000E+00  9.000E+00
     -14     1     6     6     0     0 -7.065866150E+00  3.977510775E+01  6.928903900E+02  6.940670560E+02  7.629394531E-06  0.00000E+00  9.000E+00
       5     1     3     3   502     0  6.804689169E+01 -7.462164629E+01 -1.189275350E+02  1.560932114E+02  4.750000000E+00  0.00000E+00  9.000E+00
      -5     1     4     4     0   504 -8.423272835E+01 -3.045273247E+01  2.807375152E+02  2.947178929E+02  4.750000000E+00  0.00000E+00  9.000E+00
      21     1     1     2   503   511 -1.317802156E+01  6.696955158E-01  7.283573611E+01  7.402130234E+01  0.000000000E+00  0.00000E+00  9.000E+00
</event>
<event>
     13  10001  1.00000E+00  7.99347E+00 -1.00000E+00  2.14770E-01
      21    -1     0     0   503   504  0.000000000E+00  0.000000000E+00  7.725645053E+02  7.725645053E+02  0.000000000E+00  0.00000E+00  9.000E+00
      21    -1     0     0   502   512  0.000000000E+00  0.000000000E+00 -8.237684316E+01  8.237684316E+01  0.000000000E+00  0.00000E+00  9.000E+00
       6     2     1     2   502     0 -1.461531098E+02  3.674324193E+01  2.286781171E+02  3.234014202E+02  1.720000000E+02  0.00000E+00  9.000E+00
      -6     2     1     2     0   504  1.540673719E+02 -3.786576974E+01  4.666533727E+02  5.220344259E+02  1.720000000E+02  0.00000E+00  9.000E+00
      24     2     3     3     0     0 -2.564843676E+01 -3.169500474E+01  9.929905465E+01  1.337526023E+02  7.979373864E+01  0.00000E+00  9.000E+00
     -24     2     4     4     0     0  1.380332781E+02 -3.173787354E+01  4.717794590E+02  5.035011440E+02  1.042931714E+02  0.00000E+00  9.000E+00
     -11     1     5     5     0     0 -1.650176689E+01 -4.571190267E+01  1.052984460E+02  1.159726221E+02  1.907348633E-06  0.00000E+00  9.000E+00
      12     1     5     5     0     0 -9.146669862E+00  1.401689793E+01 -5.999391340E+00  1.777998013E+01  9.573923590E-07  0.00000E+00  9.000E+00
      13     1     6     6     0     0  1.241535955E+02  5.085333443E+00  2.608690028E+02  2.889508825E+02  5.394796609E-06  0.00000E+00  9.000E+00
     -14     1     6     6     0     0  1.387968256E+01 -3.682320698E+01  2.109104562E+02  2.145502614E+02  2.697398305E-06  0.00000E+00  9.000E+00
       5     1     3     3   502     0 -1.205046731E+02  6.843824667E+01  1.293790624E+02  1.896488179E+02  4.750000000E+00  0.00000E+00  9.000E+00
      -5     1     4     4     0   504  1.603409388E+01 -6.127896194E+00 -5.126086319E+00  1.853328193E+01  4.750000000E+00  0.00000E+00  9.000E+00
      21     1     1     2   503   512 -7.914262114E+00  1.122527805E+00 -5.143827588E+00  9.505502393E+00  1.884864366E-07  0.00000E+00  9.000E+00
</event>
<event>
     13  10001  1.00000E+00  3.58169E+01 -1.00000E+00  1.51330E-01
      21    -1     0     0   511   504  0.000000000E+00  0.000000000E+00  7.986954640E+01  7.986954640E+01  0.000000000E+00  0.00000E+00  9.000E+00
      21    -1     0     0   502   503  0.000000000E+00  0.000000000E+00 -7.516505345E+02  7.516505345E+02  0.000000000E+00  0.00000E+00  9.000E+00
       6     2     1     2   502     0  2.429964565E+01 -3.005361903E+01 -5.547419448E+02  5.820793057E+02  1.720000000E+02  0.00000E+00  9.000E+00
      -6     2     1     2     0   504 -4.379259000E+01  5.758277001E-03 -7.112313515E+01  1.912074562E+02  1.720000000E+02  0.00000E+00  9.000E+00
      24     2     3     3     0     0  5.566583174E+00 -8.142295061E+01 -4.450423851E+02  4.594159789E+02  7.962181446E+01  0.00000E+00  9.000E+00
     -24     2     4     4     0     0 -9.261608397E+01  2.026659059E+01 -5.321725841E+01  1.351947987E+02  8.035597855E+01  0.00000E+00  9.000E+00
     -11     1     5     5     0     0  1.017243492E+01 -7.581681367E+01 -4.456194447E+02  4.521375423E+02  5.394796609E-06  0.00000E+00  9.000E+00
      12     1     5     5     0     0 -4.605851744E+00 -5.606136941E+00  5.770595234E-01  7.278436603E+00  6.090821157E-07  0.00000E+00  9.000E+00
      13     1     6     6     0     0 -2.509188381E+00 -1.112809863E+01  1.430835612E+01  1.829917102E+01  6.307962682E-07  0.00000E+00  9.000E+00
     -14     1     6     6     0     0 -9.010689558E+01  3.139468922E+01 -6.752561453E+01  1.168956276E+02  2.861022949E-06  0.00000E+00  9.000E+00
       5     1     3     3   502     0  1.873306248E+01  5.136933158E+01 -1.096995596E+02  1.226633268E+02  4.750000000E+00  0.00000E+00  9.000E+00
      -5     1     4     4     0   504  4.882349396E+01 -2.026083231E+01 -1.790587674E+01  5.601265759E+01  4.750000000E+00  0.00000E+00  9.000E+00
      21     1     1     2   511   503  1.949294435E+01  3.004786075E+01 -4.591590813E+01  5.823331894E+01  6.743495762E-07  0.00000E+00  9.000E+00
</event>
<event>
     13  10001  1.00000E+00  1.74451E+01 -1.00000E+00  1.76120E-01
      21    -1     0     0   502   503  0.000000000E+00  0.000000000E+00  1.664483057E+02  1.664483057E+02  0.000000000E+00  0.00000E+00  9.000E+00
      21    -1     0     0   503   512  0.000000000E+00  0.000000000E+00 -4.276427919E+02  4.276427919E+02  0.000000000E+00  0.00000E+00  9.000E+00
       6     2     1     2   502     0  1.339738536E+02  1.172791657E+02 -4.219847135E+01  2.511336440E+02  1.720000000E+02  0.00000E+00  9.000E+00
      -6     2     1     2     0   504 -1.208890899E+02 -1.057414163E+02 -1.682261110E+02  2.892739940E+02  1.720000000E+02  0.00000E+00  9.000E+00
      24     2     3     3     0     0  6.258207626E+01  1.391558426E+02 -3.612932787E+01  1.760685264E+02  8.008703301E+01  0.00000E+00  9.000E+00
     -24     2     4     4     0     0  6.050991516E+00 -4.573080876E+01 -4.782408350E+01  1.042489470E+02  8.032918908E+01  0.00000E+00  9.000E+00
     -11     1     5     5     0     0  6.816879960E+01  1.044782514E+02 -5.483871206E+01  1.362716941E+02  2.336015456E-06  0.00000E+00  9.000E+00
      12     1     5     5     0     0 -5.586723340E+00  3.467759121E+01  1.870938419E+01  3.979683237E+01  1.430511475E-06  0.00000E+00  9.000E+00
      13     1     6     6     0     0 -2.381496398E+01 -4.701600787E+01 -5.203194036E+01  7.406065300E+01  1.168007728E-06  0.00000E+00  9.000E+00
     -14     1     6     6     0     0  2.986595550E+01  1.285199117E+00  4.207856852E+00  3.018829399E+01  7.275674114E-07  0.00000E+00  9.000E+00
       5     1     3     3   502     0  7.139177736E+01 -2.187667698E+01 -6.069143480E+00  7.506511755E+01  4.750000000E+00  0.00000E+00  9.000E+00
      -5     1     4     4     0   504 -1.269400815E+02 -6.001060755E+01 -1.204020275E+02  1.850250470E+02  4.750000000E+00  0.00000E+00  9.000E+00
      21     1     1     2   504   512 -1.308476367E+01 -1.153774936E+01 -5.076990377E+01  5.368345955E+01  6.743495762E-07  0.00000E+00  9.000E+00
</event>
<event>
     13  10001  1.00000E+00  4.51636E+00 -1.00000E+00  2.62224E-01
      21    -1     0     0   511   503  0.000000000E+00  0.000000000E+00  1.378676959E+03  1.378676959E+03  0.000000000E+00  0.00000E+00  9.000E+00
      21    -1     0     0   503   504  0.000000000E+00  0.000000000E+00 -4.203537124E+01  4.203537124E+01  0.000000000E+00  0.00000E+00  9.000E+00
       6     2     1     2   502     0  2.144085508E+01  9.831123221E+01  6.620133971E+02  6.913541398E+02  1.720000000E+02  0.00000E+00  9.000E+00
      -6     2     1     2     0   504 -2.198952822E+01 -1.027941393E+02  3.440837740E+02  3.987829208E+02  1.720000000E+02  0.00000E+00  9.000E+00
      24     2     3     3     0     0  2.125839337E+01  1.218266513E+02  3.674748973E+02  3.958401831E+02  7.973705627E+01  0.00000E+00  9.000E+00
     -24     2     4     4     0     0 -6.245530766E+01 -8.259654044E+01  3.218294290E+02  3.481544637E+02  8.315344384E+01  0.00000E+00  9.000E+00
     -11     1     5     5     0     0  2.141970543E+01  5.918614175E+01  2.872042816E+02  2.940205818E+02  0.000000000E+00  0.00000E+00  9.000E+00
      12     1     5     5     0     0 -1.613120579E-01  6.264050959E+01  8.027061574E+01  1.018196013E+02  1.907348633E-06  0.00000E+00  9.000E+00
      13     1     6     6     0     0 -6.454689176E+01 -4.496582512E+01  1.245876010E+02  1.473441448E+02  2.336015456E-06  0.00000E+00  9.000E+00
     -14     1     6     6     0     0  2.091584099E+00 -3.763071532E+01  1.972418280E+02  2.008103189E+02  2.697398305E-06  0.00000E+00  9.000E+00
       5     1     3     3   502     0  1.824617068E-01 -2.351541913E+01  2.945384998E+02  2.955139567E+02  4.750000000E+00  0.00000E+00  9.000E+00
      -5     1     4     4     0   504  4.046577945E+01 -2.019759883E+01  2.225434493E+01  5.062845715E+01  4.750000000E+00  0.00000E+00  9.000E+00
      21     1     1     2   511   502  5.486731394E-01  4.482907059E+00  3.305444171E+02  3.305752700E+02  0.000000000E+00  0.00000E+00  9.000E+00
</event>
<event>
     13  10001  1.00000E+00  1.47473E+02 -1.00000E+00  1.18799E-01
       2    -1     0     0   502     0  0.000000000E+00  0.000000000E+00  3.847954674E+02  3.847954674E+02  0.000000000E+00  0.00000E+00  9.000E+00
      21    -1     0     0   503   504  0.000000000E+00  0.000000000E+00 -7.748656046E+02  7.748656046E+02  0.000000000E+00  0.00000E+00  9.000E+00
       6     2     1     2   502     0 -7.461535338E+00  1.810901722E+01 -5.743972007E+02  5.999164568E+02  1.720000000E+02  0.00000E+00  9.000E+00
      -6     2     1     2     0   504  1.396879439E+02 -8.341239534E+01 -8.592968980E+01  2.518695316E+02  1.720000000E+02  0.00000E+00  9.000E+00
      24     2     3     3     0     0 -4.099653726E+01  6.688177774E+01 -3.143600871E+02  3.331858034E+02  7.769573334E+01  0.00000E+00  9.000E+00
     -24     2     4     4     0     0  1.219513442E+02 -1.176132306E+02 -4.098370038E+01  1.924810768E+02  8.163515697E+01  0.00000E+00  9.000E+00
     -11     1     5     5     0     0 -4.752046743E+01  3.701519490E+01 -2.831939601E+02  2.895291670E+02  6.607249480E-06  0.00000E+00  9.000E+00
      12     1     5     5     0     0  6.523930170E+00  2.986658284E+01 -3.116612698E+01  4.365663645E+01  9.536743164E-07  0.00000E+00  9.000E+00
      13     1     6     6     0     0  1.311161237E+02 -1.012741441E+02 -4.798254850E+01  1.724825067E+02  3.568322551E-06  0.00000E+00  9.000E+00
     -14     1     6     6     0     0 -9.164779471E+00 -1.633908655E+01  6.998848114E+00  1.999857013E+01  6.251387883E-07  0.00000E+00  9.000E+00
       5     1     3     3   502     0  3.353500192E+01 -4.877276052E+01 -2.600371136E+02  2.667306534E+02  4.750000000E+00  0.00000E+00  9.000E+00
      -5     1     4     4     0   504  1.773659971E+01  3.420083528E+01 -4.494598942E+01  5.938845484E+01  4.750000000E+00  0.00000E+00  9.000E+00
       2     1     1     2   503     0 -1.322264086E+02  6.530337811E+01  2.702567534E+02  3.078750835E+02  5.394796609E-06  0.00000E+00  9.000E+00
</event>
<event>
     13  10001  1.00000E+00  1.14907E+01 -1.00000E+00  1.94805E-01
      21    -1     0     0   503   504  0.000000000E+00  0.000000000E+00  4.267735703E+02  4.267735703E+02  0.000000000E+00  0.00000E+00  9.000E+00
      21    -1     0     0   502   511  0.000000000E+00  0.000000000E+00 -1.119800651E+02  1.119800651E+02  0.000000000E+00  0.00000E+00  9.000E+00
       6     2     1     2   502     0  7.388199787E+01 -9.319360267E+01  1.357430070E+02  2.493065606E+02  1.720000000E+02  0.00000E+00  9.000E+00
      -6     2     1     2     0   504 -8.349783983E+01  9.948419252E+01  1.734992644E+02  2.766857216E+02  1.720000000E+02  0.00000E+00  9.000E+00
      24     2     3     3     0     0  3.088793692E+01 -4.948385487E+01  1.565463951E+02  1.843883444E+02  7.803570466E+01  0.00000E+00  9.000E+00
     -24     2     4     4     0     0  1.421361491E+01  6.754612737E+00  6.365824038E+01  1.028066936E+02  7.917823583E+01  0.00000E+00  9.000E+00
     -11     1     5     5     0     0 -3.733338125E+00 -1.313530568E+01 -5.517596080E+00  1.472813415E+01  1.788139343E-07  0.00000E+00  9.000E+00
      12     1     5     5     0     0  3.462127505E+01 -3.634854919E+01  1.620639912E+02  1.696602103E+02  0.000000000E+00  0.00000E+00  9.000E+00
      13     1     6     6     0     0 -2.888872953E+01  3.366815203E-01  4.359612544E+00  2.921777318E+01  7.052516679E-07  0.00000E+00  9.000E+00
     -14     1     6     6     0     0  4.310234444E+01  6.417931217E+00  5.929862784E+01  7.358892037E+01  1.168007728E-06  0.00000E+00  9.000E+00
       5     1     3     3   502     0  4.299406095E+01 -4.370974780E+01 -2.080338809E+01  6.491821613E+01  4.750000000E+00  0.00000E+00  9.000E+00
      -5     1     4     4     0   504 -9.771145474E+01  9.272957979E+01  1.098410240E+02  1.738790281E+02  4.750000000E+00  0.00000E+00  9.000E+00
      21     1     1     2   503   511  9.615841962E+00 -6.290589851E+00  5.551233787E+00  1.276135314E+01  1.032382731E-07  0.00000E+00  9.000E+00
</event>
<event>
     13  10001  1.00000E+00  1.57634E+02 -1.00000E+00  1.17616E-01
      21    -1     0     0   502   503  0.000000000E+00  0.000000000E+00  3.699525083E+02  3.699525083E+02  0.000000000E+00  0.00000E+00  9.000E+00
       2    -1     0     0   503     0  0.000000000E+00  0.000000000E+00 -7.945248598E+02  7.945248598E+02  0.000000000E+00  0.00000E+00  9.000E+00
       6     2     1     2   502     0  2.842972439E+01 -6.486533226E+01 -4.327850035E+02  4.710654093E+02  1.720000000E+02  0.00000E+00  9.000E+00
      -6     2     1     2     0   504  1.080528638E+02  1.437382026E+02  2.828640883E+02  3.767388813E+02  1.720000000E+02  0.00000E+00  9.000E+00
      24     2     3     3     0     0  2.047784779E+01  2.356053223E+01 -1.073723008E+02  1.337252909E+02  7.334304009E+01  0.00000E+00  9.000E+00
     -24     2     4     4     0     0  1.375800109E+02  1.002053186E+02  2.557908857E+02  3.173883531E+02  7.960542819E+01  0.00000E+00  9.000E+00
     -11     1     5     5     0     0  3.106109105E+01  1.268975235E+01 -1.127438819E+02  1.176307957E+02  2.336015456E-06  0.00000E+00  9.000E+00
      12     1     5     5     0     0 -1.058324326E+01  1.087077988E+01  5.371581110E+00  1.609449523E+01  4.042583694E-07  0.00000E+00  9.000E+00
      13     1     6     6     0     0  3.188341586E+01  3.081689468E+00  1.147645107E+01  3.402584232E+01  2.384185791E-07  0.00000E+00  9.000E+00
     -14     1     6     6     0     0  1.056965951E+02  9.712362913E+01  2.443144347E+02  2.833625108E+02  2.697398305E-06  0.00000E+00  9.000E+00
       5     1     3     3   502     0  7.951876605E+00 -8.842586449E+01 -3.254127028E+02  3.373401184E+02  4.750000000E+00  0.00000E+00  9.000E+00
      -5     1     4     4     0   504 -2.952714709E+01  4.353288397E+01  2.707320258E+01  5.935052822E+01  4.750000000E+00  0.00000E+00  9.000E+00
       2     1     1     2   504     0 -1.364825882E+02 -7.887287031E+01 -2.746514362E+02  3.166730775E+02  0.000000000E+00  0.00000E+00  9.000E+00
</event>
<event>
     13  10001  1.00000E+00  2.65366E+01 -1.00000E+00  1.60736E-01
       2    -1     0     0   502     0  0.000000000E+00  0.000000000E+00  2.322466817E+02  2.322466817E+02  0.000000000E+00  0.00000E+00  9.000E+00
      -2    -1     0     0     0   511  0.000000000E+00  0.000000000E+00 -1.728994688E+02  1.728994688E+02  0.000000000E+00  0.00000E+00  9.000E+00
       6     2     1     2   502     0  2.917103604E+01  6.156699175E+00  9.280482266E+01  1.977007572E+02  1.720000000E+02  0.00000E+00  9.000E+00
      -6     2     1     2     0   512 -9.090060714E+00 -2.350454083E+01 -1.372719266E+01  1.743775457E+02  1.720000000E+02  0.00000E+00  9.000E+00
      24     2     3     3     0     0 -4.234248269E+01  2.492783480E+01  2.902127885E+01  9.993858734E+01  8.204391400E+01  0.00000E+00  9.000E+00
     -24     2     4     4     0     0  2.366052555E+01 -7.448015873E+01 -1.954962282E+01  1.133236539E+02  7.970538413E+01  0.00000E+00  9.000E+00
     -11     1     5     5     0     0  2.244449182E+01 -3.083516164E+00  1.703409642E+01  2.834473012E+01  2.384185791E-07  0.00000E+00  9.000E+00
      12     1     5     5     0     0 -6.478697451E+01  2.801135096E+01  1.198718244E+01  7.159385722E+01  9.078709013E-07  0.00000E+00  9.000E+00
      13     1     6     6     0     0  3.536186733E+01 -1.016999595E+01 -2.955640185E+01  4.719609485E+01  8.259061849E-07  0.00000E+00  9.000E+00
     -14     1     6     6     0     0 -1.170134177E+01 -6.431016278E+01  1.000677903E+01  6.612755902E+01  1.563415176E-06  0.00000E+00  9.000E+00
       5     1     3     3   502     0  7.151351874E+01 -1.877113562E+01  6.378354381E+01  9.776216986E+01  4.750000000E+00  0.00000E+00  9.000E+00
      -5     1     4     4     0   512 -3.275058627E+01  5.097561790E+01  5.822430159E+00  6.105389188E+01  4.750000000E+00  0.00000E+00  9.000E+00
      21     1     1     2   512   511 -2.008097533E+01  1.734784165E+01 -1.973041714E+01  3.306784754E+01  3.371747881E-07  0.00000E+00  9.000E+00
</event>
<event>
     13  10001  1.00000E+00  2.04875E+02 -1.00000E+00  1.13184E-01
      21    -1     0     0   502   503  0.000000000E+00  0.000000000E+00  1.458473325E+02  1.458473325E+02  0.000000000E+00  0.00000E+00  9.000E+00
      21    -1     0     0   503   513  0.000000000E+00  0.000000000E+00 -8.394328501E+02  8.394328501E+02  0.000000000E+00  0.00000E+00  9.000E+00
       6     2     1     2   502     0  3.945450312E+01 -1.763300726E+02 -8.927553977E+01  2.649586275E+02  1.720000000E+02  0.00000E+00  9.000E+00
      -6     2     1     2     0   504  7.342546843E+01  5.356794591E+00 -2.831559078E+02  3.393836513E+02  1.720000000E+02  0.00000E+00  9.000E+00
      24     2     3     3     0     0  6.812312291E+01 -1.716029608E+02 -1.091366096E+02  2.294444059E+02  8.152054826E+01  0.00000E+00  9.000E+00
     -24     2     4     4     0     0  1.055165578E+02  2.518027186E+01 -1.571549579E+02  2.077720631E+02  8.187648848E+01  0.00000E+00  9.000E+00
     -11     1     5     5     0     0  3.765624428E+01 -5.828714474E+01 -2.900944011E-01  6.939357413E+01  1.715426408E-06  0.00000E+00  9.000E+00
      12     1     5     5     0     0  3.046687862E+01 -1.133158161E+02 -1.088465152E+02  1.600508317E+02  1.348699152E-06  0.00000E+00  9.000E+00
      13     1     6     6     0     0 -4.702138225E-01 -1.794524219E+01 -4.082933162E+01  4.460142530E+01  9.536743164E-07  0.00000E+00  9.000E+00
     -14     1     6     6     0     0  1.059867716E+02  4.312551405E+01 -1.163256262E+02  1.631706378E+02  1.907348633E-06  0.00000E+00  9.000E+00
       5     1     3     3   502     0 -2.866861979E+01 -4.727111733E+00  1.986106983E+01  3.551422167E+01  4.750000000E+00  0.00000E+00  9.000E+00
      -5     1     4     4     0   504 -3.209108937E+01 -1.982347727E+01 -1.260009499E+02  1.316115882E+02  4.750000000E+00  0.00000E+00  9.000E+00
      21     1     1     2   504   513 -1.128799715E+02  1.709732780E+02 -3.211540701E+02  3.809379037E+02  5.394796609E-06  0.00000E+00  9.000E+00
</event>
<event>
     13  10001  1.00000E+00  2.62948E+01 -1.00000E+00  1.61042E-01
      21    -1     0     0   511   503  0.000000000E+00  0.000000000E+00  9.319524027E+01  9.319524027E+01  0.000000000E+00  0.00000E+00  9.000E+00
      21    -1     0     0   503   504  0.000000000E+00  0.000000000E+00 -1.135416947E+03  1.135416947E+03  0.000000000E+00  0.00000E+00  9.000E+00
       6     2     1     2   502     0 -1.410278155E+02  8.186296614E+00 -1.618854164E+02  2.752212714E+02  1.720000000E+02  0.00000E+00  9.000E+00
      -6     2     1     2     0   504  1.670431242E+02 -4.362758931E+00 -8.926900784E+02  9.243386907E+02  1.720000000E+02  0.00000E+00  9.000E+00
      24     2     3     3     0     0 -1.501367135E+02  1.373723105E+01 -1.832195933E+02  2.509006115E+02  8.155950728E+01  0.00000E+00  9.000E+00
     -24     2     4     4     0     0  1.843576849E+02 -3.409437954E+01 -8.005312435E+02  8.258522620E+02  7.766275900E+01  0.00000E+00  9.000E+00
     -11     1     5     5     0     0 -8.706620611E+01 -3.178402847E+01 -1.126183242E+02  1.458548445E+02  3.568322551E-06  0.00000E+00  9.000E+00
      12     1     5     5     0     0 -6.307050736E+01  4.552125952E+01 -7.060126907E+01  1.050457670E+02  2.697398305E-06  0.00000E+00  9.000E+00
      13     1     6     6     0     0  1.229991621E+01 -1.153591703E+01 -1.952035529E+01  2.579553433E+01  7.539457465E-07  0.00000E+00  9.000E+00
     -14     1     6     6     0     0  1.720577687E+02 -2.255846251E+01 -7.810108882E+02  8.000567277E+02  1.078959322E-05  0.00000E+00  9.000E+00
       5     1     3     3   502     0  9.108898024E+00 -5.550934439E+00  2.133417687E+01  2.432065992E+01  4.750000000E+00  0.00000E+00  9.000E+00
      -5     1     4     4     0   504 -1.731456079E+01  2.973162061E+01 -9.215883489E+01  9.848642865E+01  4.750000000E+00  0.00000E+00  9.000E+00
      21     1     1     2   511   502 -2.601530870E+01 -3.823537683E+00  1.235378788E+01  2.905222543E+01  4.129530925E-07  0.00000E+00  9.000E+00
</event>
<event>
     13  10001  1.00000E+00  5.48187E+01 -1.00000E+00  1.39770E-01
      21    -1     0     0   503   504  0.000000000E+00  0.000000000E+00  6.546164509E+02  6.546164509E+02  0.000000000E+00  0.00000E+00  9.000E+00
      21    -1     0     0   512   503  0.000000000E+00  0.000000000E+00 -2.766759801E+02  2.766759801E+02  0.000000000E+00  0.00000E+00  9.000E+00
       6     2     1     2   502     0  7.026217594E+01 -3.496901331E+02  2.349023157E+02  4.604161818E+02  1.720000000E+02  0.00000E+00  9.000E+00
      -6     2     1     2     0   504 -1.553141335E+01  3.527947310E+02  1.356587573E+02  4.155630463E+02  1.720000000E+02  0.00000E+00  9.000E+00
      24     2     3     3     0     0  1.072057260E+02 -3.215079703E+02  1.958720256E+02  3.995475838E+02  8.007483114E+01  0.00000E+00  9.000E+00
     -24     2     4     4     0     0  2.753093125E+01  1.031043902E+02  7.863755809E+01  1.558062149E+02  8.187333876E+01  0.00000E+00  9.000E+00
     -11     1     5     5     0     0 -4.416941434E+00  1.035152254E+00 -2.075067269E+00  4.988668759E+00  3.613339559E-07  0.00000E+00  9.000E+00
      12     1     5     5     0     0  1.116226674E+02 -3.225431226E+02  1.979470929E+02  3.945589150E+02  7.629394531E-06  0.00000E+00  9.000E+00
      13     1     6     6     0     0  3.519595624E+00 -1.419828962E+01  1.086289312E+01  1.822035753E+01  3.153981341E-07  0.00000E+00  9.000E+00
     -14     1     6     6     0     0  2.401133562E+01  1.173026798E+02  6.777466497E+01  1.375858574E+02  1.907348633E-06  0.00000E+00  9.000E+00
       5     1     3     3   502     0 -3.694355003E+01 -2.818216273E+01  3.903029003E+01  6.086859802E+01  4.750000000E+00  0.00000E+00  9.000E+00
      -5     1     4     4     0   504 -4.306234460E+01  2.496903408E+02  5.702119921E+01  2.597568314E+02  4.750000000E+00  0.00000E+00  9.000E+00
      21     1     1     2   512   502 -5.473076259E+01 -3.104597966E+00  7.379397762E+00  5.531320289E+01  1.469710828E-06  0.00000E+00  9.000E+00
</event>
<event>
     13  10001  1.00000E+00  9.82299E+00 -1.00000E+00  2.02937E-01
      21    -1     0     0   511   503  0.000000000E+00  0.000000000E+00  1.164198713E+02  1.164198713E+02  0.000000000E+00  0.00000E+00  9.000E+00
      21    -1     0     0   503   504  0.000000000E+00  0.000000000E+00 -3.306642391E+02  3.306642391E+02  0.000000000E+00  0.00000E+00  9.000E+00
       6     2     1     2   502     0 -6.797530886E+01  1.754231634E+01 -1.406478772E+02  2.330111604E+02  1.720000000E+02  0.00000E+00  9.000E+00
      -6     2     1     2     0   504  7.728245940E+01 -2.068366329E+01 -7.531673022E+01  2.041004711E+02  1.720000000E+02  0.00000E+00  9.000E+00
      24     2     3     3     0     0 -9.461260996E+01 -3.156127139E+01 -8.499050880E+01  1.540110762E+02  8.092196972E+01  0.00000E+00  9.000E+00
     -24     2     4     4     0     0  1.041989967E+02 -1.517374969E+01 -8.694117165E+00  1.318786309E+02  7.892218968E+01  0.00000E+00  9.000E+00
     -11     1     5     5     0     0 -7.196894233E+01 -2.133329479E+01 -9.995776187E+01  1.250047690E+02  1.907348633E-06  0.00000E+00  9.000E+00
      12     1     5     5     0     0 -2.264366763E+01 -1.022797660E+01  1.496725306E+01  2.900630713E+01  1.066240300E-06  0.00000E+00  9.000E+00
      13     1     6     6     0     0  4.216248497E+01 -2.129833074E+01 -4.020395260E+01  6.202944330E+01  1.168007728E-06  0.00000E+00  9.000E+00
     -14     1     6     6     0     0  6.203651176E+01  6.124581049E+00  3.150983543E+01  6.984918763E+01  2.078484985E-06  0.00000E+00  9.000E+00
       5     1     3     3   502     0  2.663730111E+01  4.910358773E+01 -5.565736844E+01  7.900008418E+01  4.750000000E+00  0.00000E+00  9.000E+00
      -5     1     4     4     0   504 -2.691653732E+01 -5.509913600E+00 -6.662261306E+01  7.222184019E+01  4.750000000E+00  0.00000E+00  9.000E+00
      21     1     1     2   511   502 -9.307150543E+00  3.141346950E+00  1.720239661E+00  9.972478949E+00  2.475566823E-07  0.00000E+00  9.000E+00
</event>
<event>
     13  10001  1.00000E+00  2.30948E+01 -1.00000E+00  1.65514E-01
      21    -1     0     0   502   503  0.000000000E+00  0.000000000E+00  3.879926258E+02  3.879926258E+02  0.000000000E+00  0.00000E+00  9.000E+00
      21    -1     0     0   503   512  0.000000000E+00  0.000000000E+00 -1.354944397E+02  1.354944397E+02  0.000000000E+00  0.00000E+00  9.000E+00
       6     2     1     2   502     0 -9.172950143E+01  2.321243937E+01  1.982365021E+02  2.789889416E+02  1.720000000E+02  0.00000E+00  9.000E+00
      -6     2     1     2     0   504  8.547106171E+01 -9.817553010E-01  8.162331594E+01  2.086926734E+02  1.720000000E+02  0.00000E+00  9.000E+00
      24     2     3     3     0     0 -1.233898634E+02 -8.446381819E+00  1.760771131E+02  2.288066689E+02  7.780065677E+01  0.00000E+00  9.000E+00
     -24     2     4     4     0     0  8.361560067E+01 -2.530616614E+01  1.171268217E+02  1.653546864E+02  7.740483985E+01  0.00000E+00  9.000E+00
     -11     1     5     5     0     0 -1.639462951E+01  4.429660134E+00  8.800567347E+01  8.962926045E+01  9.536743164E-07  0.00000E+00  9.000E+00
      12     1     5     5     0     0 -1.069952339E+02 -1.287604195E+01  8.807143966E+01  1.391774084E+02  1.651812370E-06  0.00000E+00  9.000E+00
      13     1     6     6     0     0  6.023999461E+01  1.358537655E+01  3.360917441E+01  7.030644359E+01  1.719260824E-06  0.00000E+00  9.000E+00
     -14     1     6     6     0     0  2.337560606E+01 -3.889154270E+01  8.351764728E+01  9.504824280E+01  9.536743164E-07  0.00000E+00  9.000E+00
       5     1     3     3   502     0  3.166036195E+01  3.165882119E+01  2.215938893E+01  5.018227272E+01  4.750000000E+00  0.00000E+00  9.000E+00
      -5     1     4     4     0   504  1.855461044E+00  2.432441084E+01 -3.550350575E+01  4.333798702E+01  4.750000000E+00  0.00000E+00  9.000E+00
      21     1     1     2   504   512  6.258439717E+00 -2.223068407E+01 -2.736163194E+01  3.580545048E+01  6.743495762E-07  0.00000E+00  9.000E+00
</event>
<event>
     13  10001  1.00000E+00  5.67412E+01 -1.00000E+00  1.38913E-01
       2    -1     0     0   502     0  0.000000000E+00  0.000000000E+00  7.907144754E+02  7.907144754E+02  0.000000000E+00  0.00000E+00  9.000E+00
      21    -1     0     0   511   512  0.000000000E+00  0.000000000E+00 -9.871592540E+01  9.871592540E+01  0.000000000E+00  0.00000E+00  9.000E+00
       6     2     1     2   502     0  9.769890831E+01 -1.145038270E+02  4.153561845E+02  4.740896150E+02  1.720000000E+02  0.00000E+00  9.000E+00
      -6     2     1     2     0   512 -7.322410771E+01  1.656951523E+02  2.001160862E+02  3.200735875E+02  1.720000000E+02  0.00000E+00  9.000E+00
      24     2     3     3     0     0  7.567239434E+01 -2.119576969E-01  1.718991657E+02  2.041976345E+02  8.013110843E+01  0.00000E+00  9.000E+00
     -24     2     4     4     0     0 -5.104190935E+01  1.850813750E+02  2.021266733E+02  2.901657203E+02  8.050193343E+01  0.00000E+00  9.000E+00
     -11     1     5     5     0     0  3.514862134E+01 -3.610770368E+01  1.155388955E+02  1.260493086E+02  0.000000000E+00  0.00000E+00  9.000E+00
      12     1     5     5     0     0  4.052377300E+01  3.589574599E+01  5.636027029E+01  7.814832580E+01  9.536743164E-07  0.00000E+00  9.000E+00
      13     1     6     6     0     0 -4.094865650E+01  4.662480637E+01  2.968742638E+01  6.878959458E+01  1.469710828E-06  0.00000E+00  9.000E+00
     -14     1     6     6     0     0 -1.009325285E+01  1.384565687E+02  1.724392469E+02  2.213761257E+02  2.697398305E-06  0.00000E+00  9.000E+00
       5     1     3     3   502     0  2.202651396E+01 -1.142918693E+02  2.434570187E+02  2.698919805E+02  4.750000000E+00  0.00000E+00  9.000E+00
      -5     1     4     4     0   512 -2.218219837E+01 -1.938622275E+01 -2.010587130E+00  2.990786715E+01  4.750000000E+00  0.00000E+00  9.000E+00
       2     1     1     2   511     0 -2.447480059E+01 -5.119132529E+01  7.652627934E+01  9.526719834E+01  0.000000000E+00  0.00000E+00  9.000E+00
</event>
<event>
     13  10001  1.00000E+00  7.61419E+00 -1.00000E+00  2.17774E-01
      -2    -1     0     0     0   513  0.000000000E+00  0.000000000E+00  1.912389321E+02  1.912389321E+02  0.000000000E+00  0.00000E+00  9.000E+00
       2    -1     0     0   502     0  0.000000000E+00  0.000000000E+00 -2.471320157E+02  2.471320157E+02  0.000000000E+00  0.00000E+00  9.000E+00
       6     2     1     2   502     0  2.947536401E+01  1.310750264E+00 -1.517966263E+02  2.312936033E+02  1.720000000E+02  0.00000E+00  9.000E+00
      -6     2     1     2     0   512 -3.609860169E+01  2.445396578E+00  9.015879382E+01  1.975391027E+02  1.720000000E+02  0.00000E+00  9.000E+00
      24     2     3     3     0     0  2.678793673E+01 -1.856952626E+01 -1.786414667E+02  1.974460684E+02  7.752261230E+01  0.00000E+00  9.000E+00
     -24     2     4     4     0     0 -6.990438120E+01  3.939581831E+01  3.321887989E+01  1.215596273E+02  8.505642826E+01  0.00000E+00  9.000E+00
     -11     1     5     5     0     0 -1.869306599E+01  1.267443149E+01 -2.266236222E+01  3.199460253E+01  1.846782373E-06  0.00000E+00  9.000E+00
      12     1     5     5     0     0  4.548100272E+01 -3.124395774E+01 -1.559791045E+02  1.654514658E+02  4.672030912E-06  0.00000E+00  9.000E+00
      13     1     6     6     0     0 -6.587002211E+00  9.139880406E+00  4.845694315E+01  4.974938543E+01  1.168007728E-06  0.00000E+00  9.000E+00
     -14     1     6     6     0     0 -6.331737899E+01  3.025593790E+01 -1.523806326E+01  7.181024183E+01  3.769728732E-07  0.00000E+00  9.000E+00
       5     1     3     3   502     0  2.687427271E+00  1.988027652E+01  2.684484043E+01  3.384753488E+01  4.750000000E+00  0.00000E+00  9.000E+00
      -5     1     4     4     0   512  3.380577952E+01 -3.695042173E+01  5.693991393E+01  7.597947547E+01  4.750000000E+00  0.00000E+00  9.000E+00
      21     1     1     2   512   513  6.623237681E+00 -3.756146842E+00  5.744748891E+00  9.538241782E+00  1.685873940E-07  0.00000E+00  9.000E+00
</event>
<event>
     13  10001  1.00000E+00  1.30308E+01 -1.00000E+00  1.88756E-01
      21    -1     0     0   502   503  0.000000000E+00  0.000000000E+00  2.676185860E+02  2.676185860E+02  0.000000000E+00  0.00000E+00  9.000E+00
      21    -1     0     0   503   511  0.000000000E+00  0.000000000E+00 -5.969505165E+02  5.969505165E+02  0.000000000E+00  0.00000E+00  9.000E+00
       6     2     1     2   502     0 -1.274921763E+02 -8.291019572E+01 -4.416420297E+02  4.977549980E+02  1.720000000E+02  0.00000E+00  9.000E+00
      -6     2     1     2     0   504  1.277723464E+02  6.988243155E+01  1.858559081E+02  2.921228257E+02  1.720000000E+02  0.00000E+00  9.000E+00
      24     2     3     3     0     0 -1.001428926E+02 -1.136613005E+02 -4.132324005E+02  4.475227046E+02  8.104359409E+01  0.00000E+00  9.000E+00
     -24     2     4     4     0     0  1.471863058E+02  1.948335807E+01  1.601009094E+02  2.320990730E+02  7.870367623E+01  0.00000E+00  9.000E+00
     -11     1     5     5     0     0 -8.663847620E+01 -4.477101088E+01 -2.865346528E+02  3.026760252E+02  3.814697266E-06  0.00000E+00  9.000E+00
      12     1     5     5     0     0 -1.350441641E+01 -6.889028957E+01 -1.266977477E+02  1.448466794E+02  0.000000000E+00  0.00000E+00  9.000E+00
      13     1     6     6     0     0  9.940968258E+01  4.058376136E+00  5.056245327E+01  1.116033919E+02  2.523185073E-06  0.00000E+00  9.000E+00
     -14     1     6     6     0     0  4.777662323E+01  1.542498194E+01  1.095384561E+02  1.204956811E+02  1.907348633E-06  0.00000E+00  9.000E+00
       5     1     3     3   502     0 -2.734928374E+01  3.075110473E+01 -2.840962918E+01  5.023229333E+01  4.750000000E+00  0.00000E+00  9.000E+00
      -5     1     4     4     0   504 -1.941395944E+01  5.039907348E+01  2.575499865E+01  6.002375267E+01  4.750000000E+00  0.00000E+00  9.000E+00
      21     1     1     2   504   511 -2.801700186E-01  1.302776417E+01 -7.354580886E+01  7.469127884E+01  0.000000000E+00  0.00000E+00  9.000E+00
</event>
<event>
     13  10001  1.00000E+00  7.77295E+01 -1.00000E+00  1.31555E-01
       2    -1     0     0   503     0  0.000000000E+00  0.000000000E+00  3.401645653E+02  3.401645653E+02  0.000000000E+00  0.00000E+00  9.000E+00
      21    -1     0     0   502   503  0.000000000E+00  0.000000000E+00 -2.190576678E+02  2.190576678E+02  0.000000000E+00  0.00000E+00  9.000E+00
       6     2     1     2   502     0  2.509898593E+01  1.260817642E+01  7.105128754E+01  1.882052355E+02  1.720000000E+02  0.00000E+00  9.000E+00
      -6     2     1     2     0   504 -1.336390127E+01  6.423037850E+01 -9.447184802E+01  2.069131834E+02  1.720000000E+02  0.00000E+00  9.000E+00
      24     2     3     3     0     0  2.434424705E+01  5.805365018E+01 -2.417317743E+00  1.016832199E+02  7.981707290E+01  0.00000E+00  9.000E+00
     -24     2     4     4     0     0  5.342294656E+01  2.822070249E+01 -8.254880213E+01  1.299592924E+02  8.015418692E+01  0.00000E+00  9.000E+00
     -11     1     5     5     0     0 -1.172240037E+01 -1.469919098E+01  6.726031383E+00  1.996798398E+01  7.862392639E-07  0.00000E+00  9.000E+00
      12     1     5     5     0     0  3.606664742E+01  7.275284116E+01 -9.143349127E+00  8.171523595E+01  1.839071348E-06  0.00000E+00  9.000E+00
      13     1     6     6     0     0 -3.680936372E+00  9.999501542E+00 -6.726116908E+01  6.809995734E+01  0.000000000E+00  0.00000E+00  9.000E+00
     -14     1     6     6     0     0  5.710388293E+01  1.822120095E+01 -1.528763305E+01  6.185933506E+01  6.307962682E-07  0.00000E+00  9.000E+00
       5     1     3     3   502     0  7.547388780E-01 -4.544547376E+01  7.346860528E+01  8.652201557E+01  4.750000000E+00  0.00000E+00  9.000E+00
      -5     1     4     4     0   504 -6.678684783E+01  3.600967601E+01 -1.192304589E+01  7.695389096E+01  4.750000000E+00  0.00000E+00  9.000E+00
       2     1     1     2   504     0 -1.173508466E+01 -7.683855492E+01  1.445274580E+02  1.641038143E+02  1.907348633E-06  0.00000E+00  9.000E+00
</event>
<event>
     13  10001  1.00000E+00  3.90271E+01 -1.00000E+00  1.48843E-01
      21    -1     0     0   502   503  0.000000000E+00  0.000000000E+00  1.170052733E+03  1.170052733E+03  0.000000000E+00  0.00000E+00  9.000E+00
      21    -1     0     0   511   504  0.000000000E+00  0.000000000E+00 -2.598595142E+02  2.598595142E+02  0.000000000E+00  0.00000E+00  9.000E+00
       6     2     1     2   502     0  1.284397169E+01  1.581950842E+02  3.960155827E+02  4.600032544E+02  1.720000000E+02  0.00000E+00  9.000E+00
      -6     2     1     2     0   504  1.142293783E+00 -1.946299209E+02  7.173997132E+02  7.629734330E+02  1.720000000E+02  0.00000E+00  9.000E+00
      24     2     3     3     0     0 -3.725058873E+01  4.411989000E+01  2.457368610E+02  2.647370985E+02  7.978067077E+01  0.00000E+00  9.000E+00
     -24     2     4     4     0     0 -1.149335123E+01 -1.816179153E+01  2.385002170E+02  2.524169227E+02  7.981228962E+01  0.00000E+00  9.000E+00
     -11     1     5     5     0     0  1.769785764E+01  3.759154195E+01  8.241949799E+01  9.230011831E+01  2.697398305E-06  0.00000E+00  9.000E+00
      12     1     5     5     0     0 -5.494844636E+01  6.528348048E+00  1.633173630E+02  1.724369802E+02  2.697398305E-06  0.00000E+00  9.000E+00
      13     1     6     6     0     0 -3.436526873E+01 -1.825296614E+01  2.187913833E+02  2.222246878E+02  2.697398305E-06  0.00000E+00  9.000E+00
     -14     1     6     6     0     0  2.287191750E+01  9.117460350E-02  1.970883370E+01  3.019223491E+01  9.536743164E-07  0.00000E+00  9.000E+00
       5     1     3     3   502     0  5.009456042E+01  1.140751942E+02  1.502787217E+02  1.952661558E+02  4.750000000E+00  0.00000E+00  9.000E+00
      -5     1     4     4     0   504  1.263564501E+01 -1.764681294E+02  4.788994962E+02  5.105565103E+02  4.750000000E+00  0.00000E+00  9.000E+00
      21     1     1     2   511   503 -1.398626548E+01  3.643483677E+01 -2.032220776E+02  2.069355594E+02  4.672030912E-06  0.00000E+00  9.000E+00
</event>
<event>
     13  10001  1.00000E+00  1.58817E+00 -1.00000E+00  4.50026E-01
      -1    -1     0     0     0   513  0.000000000E+00  0.000000000E+00  1.006402496E+02  1.006402496E+02  0.000000000E+00  0.00000E+00  9.000E+00
       1    -1     0     0   502     0  0.000000000E+00  0.000000000E+00 -7.271072268E+02  7.271072268E+02  0.000000000E+00  0.00000E+00  9.000E+00
       6     2     1     2   502     0  9.465514081E+01  1.516020741E+02 -3.674025916E+02  4.432961187E+02  1.720000000E+02  0.00000E+00  9.000E+00
      -6     2     1     2     0   512 -9.580069740E+01 -1.505020745E+02 -2.739929960E+02  3.694385063E+02  1.720000000E+02  0.00000E+00  9.000E+00
      24     2     3     3     0     0  8.452111488E+00  2.384853379E+01 -1.928630152E+02  2.104043937E+02  8.021019591E+01  0.00000E+00  9.000E+00
     -24     2     4     4     0     0 -1.936881535E+01 -5.280948483E+01 -4.712007373E+01  1.108276789E+02  8.305709100E+01  0.00000E+00  9.000E+00
     -11     1     5     5     0     0 -9.394192311E+00  3.876108559E+01 -4.261477728E+01  5.836687286E+01  1.168007728E-06  0.00000E+00  9.000E+00
      12     1     5     5     0     0  1.784630380E+01 -1.491255180E+01 -1.502482379E+02  1.520375209E+02  2.697398305E-06  0.00000E+00  9.000E+00
      13     1     6     6     0     0 -3.249925312E+00 -3.589594169E+01 -6.961651463E+01  7.839349306E+01  1.348699152E-06  0.00000E+00  9.000E+00
     -14     1     6     6     0     0 -1.611889004E+01 -1.691354313E+01  2.249644090E+01  3.243418583E+01  1.634515429E-06  0.00000E+00  9.000E+00
       5     1     3     3   502     0  8.620302933E+01  1.277535403E+02 -1.745395764E+02  2.328917249E+02  4.750000000E+00  0.00000E+00  9.000E+00
      -5     1     4     4     0   512 -7.643188205E+01 -9.769258967E+01 -2.268729223E+02  2.586108274E+02  4.750000000E+00  0.00000E+00  9.000E+00
      21     1     1     2   512   513  1.145556590E+00 -1.099999588E+00  1.492861038E+01  1.501285139E+01  4.460403188E-07  0.00000E+00  9.000E+00
</event>
<event>
     13  10001  1.00000E+00  2.00476E+01 -1.00000E+00  1.70693E-01
      21    -1     0     0   502   503  0.000000000E+00  0.000000000E+00  8.395690467E+01  8.395690467E+01  0.000000000E+00  0.00000E+00  9.000E+00
      21    -1     0     0   503   511  0.000000000E+00  0.000000000E+00 -6.607509966E+02  6.607509966E+02  0.000000000E+00  0.00000E+00  9.000E+00
       6     2     1     2   502     0  1.216547707E+02 -4.086566943E+01 -2.415080105E+02  3.230789459E+02  1.720000000E+02  0.00000E+00  9.000E+00
      -6     2     1     2     0   504 -1.260822557E+02  6.041820868E+01 -2.504183878E+02  3.344255733E+02  1.720000000E+02  0.00000E+00  9.000E+00
      24     2     3     3     0     0  5.006129311E+01 -8.022557665E+01 -9.996373272E+01  1.595791802E+02  8.081145138E+01  0.00000E+00  9.000E+00
     -24     2     4     4     0     0 -1.113799199E+02  6.884796902E+01 -9.421966969E+01  1.772383551E+02  7.342042606E+01  0.00000E+00  9.000E+00
     -11     1     5     5     0     0  1.932497137E+01 -9.664846715E+00 -7.593746203E+01  7.895164292E+01  1.651812370E-06  0.00000E+00  9.000E+00
      12     1     5     5     0     0  3.073632174E+01 -7.056072993E+01 -2.402627069E+01  8.062753727E+01  1.581489940E-06  0.00000E+00  9.000E+00
      13     1     6     6     0     0 -1.150647487E+02  4.168379560E+01 -7.233468567E+01  1.421609720E+02  3.693564745E-06  0.00000E+00  9.000E+00
     -14     1     6     6     0     0  3.684828768E+00  2.716417342E+01 -2.188498402E+01  3.507738312E+01  4.768371582E-07  0.00000E+00  9.000E+00
       5     1     3     3   502     0  7.159347756E+01  3.935990722E+01 -1.415442777E+02  1.634997657E+02  4.750000000E+00  0.00000E+00  9.000E+00
      -5     1     4     4     0   504 -1.470233580E+01 -8.429760339E+00 -1.561987181E+02  1.571872182E+02  4.750000000E+00  0.00000E+00  9.000E+00
      21     1     1     2   504   511  4.427485011E+00 -1.955253925E+01 -8.486769368E+01  8.720338207E+01  1.348699152E-06  0.00000E+00  9.000E+00
</event>
<event>
     13  10001  1.00000E+00  2.83769E+02 -1.00000E+00  1.08129E-01
      21    -1     0     0   503   512  0.000000000E+00  0.000000000E+00  8.248030890E+02  8.248030890E+02  0.000000000E+00  0.00000E+00  9.000E+00
      21    -1     0     0   502   503  0.000000000E+00  0.000000000E+00 -2.487190950E+02  2.487190950E+02  0.000000000E+00  0.00000E+00  9.000E+00
       6     2     1     2   502     0  1.632033808E+02  5.221525917E+01 -3.615104368E+01  2.454642026E+02  1.720000000E+02  0.00000E+00  9.000E+00
      -6     2     1     2     0   504  1.121251767E+02 -1.209089945E+02  1.378486541E+02  2.752767546E+02  1.720000000E+02  0.00000E+00  9.000E+00
      24     2     3     3     0     0  1.622677970E+02  7.593077051E-02 -5.590842198E+01  1.894972357E+02  8.032812065E+01  0.00000E+00  9.000E+00
     -24     2     4     4     0     0  4.072344319E+01 -1.165939844E+02  1.278282752E+02  2.028903101E+02  9.783585208E+01  0.00000E+00  9.000E+00
     -11     1     5     5     0     0  2.601104005E+01 -3.128207867E+01 -1.892698282E+01  4.487062880E+01  4.129530925E-07  0.00000E+00  9.000E+00
      12     1     5     5     0     0  1.362567570E+02  3.135800944E+01 -3.698143917E+01  1.446266069E+02  2.185142372E-06  0.00000E+00  9.000E+00
      13     1     6     6     0     0  3.788478897E+01 -7.650421223E+01  1.981196763E+01  8.763940772E+01  1.192092896E-06  0.00000E+00  9.000E+00
     -14     1     6     6     0     0  2.838654222E+00 -4.008977218E+01  1.080163076E+02  1.152509024E+02  2.336015456E-06  0.00000E+00  9.000E+00
       5     1     3     3   502     0  9.355837201E-01  5.213932840E+01  1.975737830E+01  5.596696687E+01  4.750000000E+00  0.00000E+00  9.000E+00
      -5     1     4     4     0   504  7.140173354E+01 -4.315010114E+00  1.002037887E+01  7.238644457E+01  4.750000000E+00  0.00000E+00  9.000E+00
      21     1     1     2   504   512 -2.753285575E+02  6.869373535E+01  4.743863835E+02  5.527812268E+02  5.394796609E-06  0.00000E+00  9.000E+00
</event>
<event>
     13  10001  1.00000E+00  8.94025E+01 -1.00000E+00  1.28534E-01
      21    -1     0     0   511   512  0.000000000E+00  0.000000000E+00  5.184147221E+01  5.184147221E+01  0.000000000E+00  0.00000E+00  9.000E+00
       2    -1     0     0   502     0  0.000000000E+00  0.000000000E+00 -1.879553877E+03  1.879553877E+03  0.000000000E+00  0.00000E+00  9.000E+00
       6     2     1     2   502     0 -6.860516347E+01  1.509708859E+01 -2.025656569E+02  2.748662145E+02  1.720000000E+02  0.00000E+00  9.000E+00
      -6     2     1     2     0   512 -1.062217953E+01  2.632548766E+01 -5.341900711E+02  5.619153798E+02  1.720000000E+02  0.00000E+00  9.000E+00
      24     2     3     3     0     0 -5.146407436E+01  6.227275894E+01 -1.911304833E+02  2.231681826E+02  8.213847225E+01  0.00000E+00  9.000E+00
     -24     2     4     4     0     0 -5.783980966E+00 -5.376430022E+01 -2.442368747E+02  2.610280240E+02  7.456489744E+01  0.00000E+00  9.000E+00
     -11     1     5     5     0     0  2.203813617E+01  2.178988392E+01 -5.898337228E+01  6.662969827E+01  6.743495762E-07  0.00000E+00  9.000E+00
      12     1     5     5     0     0 -7.350221053E+01  4.048287502E+01 -1.321471110E+02  1.565384843E+02  0.000000000E+00  0.00000E+00  9.000E+00
      13     1     6     6     0     0  1.126829889E+01 -2.166890285E+01 -2.089472270E+02  2.103698162E+02  2.697398305E-06  0.00000E+00  9.000E+00
     -14     1     6     6     0     0 -1.705227986E+01 -3.209539737E+01 -3.528964778E+01  5.065820784E+01  1.348699152E-06  0.00000E+00  9.000E+00
       5     1     3     3   502     0 -1.714108912E+01 -4.717567035E+01 -1.143517356E+01  5.169803191E+01  4.750000000E+00  0.00000E+00  9.000E+00
      -5     1     4     4     0   512 -4.838198565E+00  8.008978788E+01 -2.899531963E+02  3.008873558E+02  4.750000000E+00  0.00000E+00  9.000E+00
       2     1     1     2   511     0  7.922734301E+01 -4.142257625E+01 -1.090956677E+03  1.094613755E+03  0.000000000E+00  0.00000E+00  9.000E+00
</event>
<event>
     13  10001  1.00000E+00  1.55036E+01 -1.00000E+00  1.81013E-01
      -1    -1     0     0     0   512  0.000000000E+00  0.000000000E+00  2.817797991E+02  2.817797991E+02  0.000000000E+00  0.00000E+00  9.000E+00
      21    -1     0     0   502   513  0.000000000E+00  0.000000000E+00 -1.607273946E+02  1.607273946E+02  0.000000000E+00  0.00000E+00  9.000E+00
       6     2     1     2   502     0  6.793441180E+01  1.540842896E+01  1.265053995E+02  2.245887800E+02  1.720000000E+02  0.00000E+00  9.000E+00
      -6     2     1     2     0   512 -5.460656022E+01 -2.332857175E+01  2.507293745E+01  1.836811119E+02  1.720000000E+02  0.00000E+00  9.000E+00
      24     2     3     3     0     0  9.212683325E+01 -3.418474500E+01  1.101989009E+02  1.668547297E+02  7.772228048E+01  0.00000E+00  9.000E+00
     -24     2     4     4     0     0 -8.966778494E+01 -2.239761452E+01 -2.154063902E+01  1.251529634E+02  8.159228100E+01  0.00000E+00  9.000E+00
     -11     1     5     5     0     0  1.955538596E+01 -4.710762888E+01  5.296256653E+01  7.352941773E+01  6.743495762E-07  0.00000E+00  9.000E+00
      12     1     5     5     0     0  7.257144729E+01  1.292288387E+01  5.723633434E+01  9.332531199E+01  9.536743164E-07  0.00000E+00  9.000E+00
      13     1     6     6     0     0 -1.049824628E+01  1.308740113E+01 -3.360440871E+01  3.755994580E+01  1.348699152E-06  0.00000E+00  9.000E+00
     -14     1     6     6     0     0 -7.916953866E+01 -3.548501565E+01  1.206376969E+01  8.759301757E+01  2.178629265E-06  0.00000E+00  9.000E+00
       5     1     3     3   502     0 -2.419242146E+01  4.959317397E+01  1.630649860E+01  5.773405024E+01  4.750000000E+00  0.00000E+00  9.000E+00
      -5     1     4     4     0   512  3.506122471E+01 -9.309572277E-01  4.661357648E+01  5.852814854E+01  4.750000000E+00  0.00000E+00  9.000E+00
      -1     1     1     2     0   513 -1.332785157E+01  7.920142785E+00 -3.052593241E+01  3.423730186E+01  5.840038640E-07  0.00000E+00  9.000E+00
</event>
<event>
     13  10001  1.00000E+00  2.39223E+01 -1.00000E+00  1.64276E-01
      21    -1     0     0   511   503  0.000000000E+00  0.000000000E+00  2.003029008E+02  2.003029008E+02  0.000000000E+00  0.00000E+00  9.000E+00
      21    -1     0     0   503   504  0.000000000E+00  0.000000000E+00 -2.689609219E+02  2.689609219E+02  0.000000000E+00  0.00000E+00  9.000E+00
       6     2     1     2   502     0 -1.590337891E+01 -1.543447410E+00 -1.496870989E+02  2.285728052E+02  1.720000000E+02  0.00000E+00  9.000E+00
      -6     2     1     2     0   504  1.773301131E+01 -2.230880551E+01  2.042610551E+01  1.755373700E+02  1.720000000E+02  0.00000E+00  9.000E+00
      24     2     3     3     0     0 -7.182918817E+01  1.266556221E+01 -1.255372982E+02  1.658402979E+02  8.014700509E+01  0.00000E+00  9.000E+00
     -24     2     4     4     0     0 -5.465723540E+01 -2.136867692E+01 -7.493052016E-01  9.995832413E+01  8.091397512E+01  0.00000E+00  9.000E+00
     -11     1     5     5     0     0 -3.820874448E+01 -2.976946106E+01 -3.293598636E+01  5.857395466E+01  1.168007728E-06  0.00000E+00  9.000E+00
      12     1     5     5     0     0 -3.362044369E+01  4.243502328E+01 -9.260131189E+01  1.072663433E+02  0.000000000E+00  0.00000E+00  9.000E+00
      13     1     6     6     0     0  6.738410098E+00 -3.611688386E+01 -2.120595909E+00  3.680125538E+01  9.098254158E-07  0.00000E+00  9.000E+00
     -14     1     6     6     0     0 -6.139564550E+01  1.474820694E+01  1.371290708E+00  6.315706875E+01  1.531488544E-06  0.00000E+00  9.000E+00
       5     1     3     3   502     0  5.592580926E+01 -1.420900962E+01 -2.414980069E+01  6.273250728E+01  4.750000000E+00  0.00000E+00  9.000E+00
      -5     1     4     4     0   504  7.239024672E+01 -9.401285868E-01  2.117541071E+01  7.557904591E+01  4.750000000E+00  0.00000E+00  9.000E+00
      21     1     1     2   511   502 -1.829632409E+00  2.385225292E+01  6.060297235E+01  6.515364750E+01  1.507891493E-06  0.00000E+00  9.000E+00
</event>
<event>
     13  10001  1.00000E+00  2.06408E+01 -1.00000E+00  1.69599E-01
      21    -1     0     0   503   504  0.000000000E+00  0.000000000E+00  1.533309265E+02  1.533309265E+02  0.000000000E+00  0.00000E+00  9.000E+00
      21    -1     0     0   502   512  0.000000000E+00  0.000000000E+00 -5.364437557E+02  5.364437557E+02  0.000000000E+00  0.00000E+00  9.000E+00
       6     2     1     2   502     0  7.162458041E+00  1.006958502E+02 -1.480041416E+02  2.483549496E+02  1.720000000E+02  0.00000E+00  9.000E+00
      -6     2     1     2     0   504 -7.195958027E+00 -1.213366399E+02 -5.294818622E+00  2.106807943E+02  1.720000000E+02  0.00000E+00  9.000E+00
      24     2     3     3     0     0 -5.697919094E+01  7.870855528E+01 -1.213815617E+02  1.753555213E+02  8.108273831E+01  0.00000E+00  9.000E+00
     -24     2     4     4     0     0 -4.308483024E+01 -1.100295971E+02 -5.101574402E+01  1.512768729E+02  7.949384430E+01  0.00000E+00  9.000E+00
     -11     1     5     5     0     0 -2.009602709E+01  6.265306806E+01 -2.407710075E+01  7.006399948E+01  8.259061849E-07  0.00000E+00  9.000E+00
      12     1     5     5     0     0 -3.688316385E+01  1.605548722E+01 -9.730446097E+01  1.052915218E+02  2.336015456E-06  0.00000E+00  9.000E+00
      13     1     6     6     0     0 -1.009970448E+01 -1.082487327E+02 -4.517682957E+01  1.177316359E+02  3.162979880E-06  0.00000E+00  9.000E+00
     -14     1     6     6     0     0 -3.298512576E+01 -1.780864415E+00 -5.838914451E+00  3.354523694E+01  6.136673773E-07  0.00000E+00  9.000E+00
       5     1     3     3   502     0  6.414164898E+01  2.198729495E+01 -2.662257993E+01  7.299942832E+01  4.750000000E+00  0.00000E+00  9.000E+00
      -5     1     4     4     0   504  3.588887221E+01 -1.130704274E+01  4.572092540E+01  5.940392145E+01  4.750000000E+00  0.00000E+00  9.000E+00
      21     1     1     2   503   512  3.349998649E-02  2.064078964E+01 -2.298138689E+02  2.307389383E+02  2.697398305E-06  0.00000E+00  9.000E+00
</event>
<event>
     13  10001  1.00000E+00  4.69734E+01 -1.00000E+00  1.43749E-01
      21    -1     0     0   502   503  0.000000000E+00  0.000000000E+00  6.912782194E+02  6.912782194E+02  0.000000000E+00  0.00000E+00  9.000E+00
      21    -1     0     0   511   504  0.000000000E+00  0.000000000E+00 -8.320944378E+01  8.320944378E+01  0.000000000E+00  0.00000E+00  9.000E+00
       6     2     1     2   502     0  8.445069920E+01 -3.356513871E+01  2.019923183E+02  2.804343698E+02  1.720000000E+02  0.00000E+00  9.000E+00
      -6     2     1     2     0   504 -8.337887848E+01 -1.339604009E+01  4.038799841E+02  4.470285593E+02  1.720000000E+02  0.00000E+00  9.000E+00
      24     2     3     3     0     0  7.471086473E+01 -2.934375907E+01  4.405038764E+01  1.220648640E+02  8.072561468E+01  0.00000E+00  9.000E+00
     -24     2     4     4     0     0  2.013802237E+00 -4.779779978E+01  1.377969959E+02  1.654293581E+02  7.803957577E+01  0.00000E+00  9.000E+00
     -11     1     5     5     0     0  4.205774735E+01  2.515328657E+01  1.011429757E+01  5.003839478E+01  1.445335824E-06  0.00000E+00  9.000E+00
      12     1     5     5     0     0  3.265311737E+01 -5.449704563E+01  3.393609008E+01  7.202646921E+01  1.719260824E-06  0.00000E+00  9.000E+00
      13     1     6     6     0     0 -9.926521245E-01  2.859348655E+00 -9.323661145E+00  9.802647097E+00  4.460403188E-07  0.00000E+00  9.000E+00
     -14     1     6     6     0     0  3.006454362E+00 -5.065714843E+01  1.471206571E+02  1.556267110E+02  3.303624740E-06  0.00000E+00  9.000E+00
       5     1     3     3   502     0  9.739834478E+00 -4.221379641E+00  1.579419307E+02  1.583695058E+02  4.750000000E+00  0.00000E+00  9.000E+00
      -5     1     4     4     0   504 -8.539268072E+01  3.440175969E+01  2.660829882E+02  2.815992012E+02  4.750000000E+00  0.00000E+00  9.000E+00
      21     1     1     2   511   503 -1.071820721E+00  4.696117880E+01  2.196473178E+00  4.702473400E+01  4.616955931E-07  0.00000E+00  9.000E+00
</event>
<event>
     13  10001  1.00000E+00  1.73368E+01 -1.00000E+00  1.76371E-01
      21    -1     0     0   512   504  0.000000000E+00  0.000000000E+00  4.192769353E+02  4.192769353E+02  0.000000000E+00  0.00000E+00  9.000E+00
      21    -1     0     0   502   503  0.000000000E+00  0.000000000E+00 -1.091806136E+02  1.091806136E+02  0.000000000E+00  0.00000E+00  9.000E+00
       6     2     1     2   502     0  3.445611178E+01  2.305327908E+00  2.060247785E+02  2.705970205E+02  1.720000000E+02  0.00000E+00  9.000E+00
      -6     2     1     2     0   504 -2.825305925E+01 -1.849437384E+01  2.517550072E+01  1.770821365E+02  1.720000000E+02  0.00000E+00  9.000E+00
      24     2     3     3     0     0  6.918456982E+01  5.126153935E+01  1.441825665E+02  1.842848075E+02  7.588166890E+01  0.00000E+00  9.000E+00
     -24     2     4     4     0     0  1.827445157E+01 -2.472888117E+01 -3.980257328E+01  9.678026261E+01  8.268434705E+01  0.00000E+00  9.000E+00
     -11     1     5     5     0     0  1.015281858E+00 -1.345614164E+01  4.774842066E+01  4.961864791E+01  0.000000000E+00  0.00000E+00  9.000E+00
      12     1     5     5     0     0  6.816928796E+01  6.471768099E+01  9.643414586E+01  1.346661596E+02  1.348699152E-06  0.00000E+00  9.000E+00
      13     1     6     6     0     0  1.094454431E+00 -2.894192183E+01 -6.197953324E+01  6.841268311E+01  1.507891493E-06  0.00000E+00  9.000E+00
     -14     1     6     6     0     0  1.717999714E+01  4.213040663E+00  2.217695996E+01  2.836757950E+01  8.920806376E-07  0.00000E+00  9.000E+00
       5     1     3     3   502     0 -3.472845804E+01 -4.895621144E+01  6.184221196E+01  8.631221302E+01  4.750000000E+00  0.00000E+00  9.000E+00
      -5     1     4     4     0   504 -4.652751083E+01  6.234507325E+00  6.497807400E+01  8.030187386E+01  4.750000000E+00  0.00000E+00  9.000E+00
      21     1     1     2   512   503 -6.203052521E+00  1.618904593E+01  7.889604254E+01  8.077839189E+01  0.000000000E+00  0.00000E+00  9.000E+00
</event>
<event>
     13  10001  1.00000E+00  2.83645E+01 -1.00000E+00  1.58544E-01
      21    -1     0     0   502   511  0.000000000E+00  0.000000000E+00  2.449771138E+02  2.449771138E+02  0.000000000E+00  0.00000E+00  9.000E+00
      21    -1     0     0   503   504  0.000000000E+00  0.000000000E+00 -1.729204399E+02  1.729204399E+02  0.000000000E+00  0.00000E+00  9.000E+00
       6     2     1     2   502     0  4.716709350E+01  2.542206634E+01  8.061111051E+01  1.973655677E+02  1.720000000E+02  0.00000E+00  9.000E+00
      -6     2     1     2     0   504 -2.754564142E+01 -4.939309775E+00 -3.936556090E+01  1.786527540E+02  1.720000000E+02  0.00000E+00  9.000E+00
      24     2     3     3     0     0  1.828532263E+01 -5.198299290E+01  4.936859674E+01  1.089101719E+02  7.992235366E+01  0.00000E+00  9.000E+00
     -24     2     4     4     0     0 -4.100001948E+01 -6.310568968E+01 -7.871770139E+00  1.109861493E+02  8.119501773E+01  0.00000E+00  9.000E+00
     -11     1     5     5     0     0 -1.456379529E+01 -5.891550934E+01  4.388294400E+01  7.489228364E+01  1.261592536E-06  0.00000E+00  9.000E+00
      12     1     5     5     0     0  3.284911792E+01  6.932516441E+00  5.485652742E+00  3.401788821E+01  3.475518164E-07  0.00000E+00  9.000E+00
      13     1     6     6     0     0 -5.962462881E+01 -3.870155436E+01 -2.557939066E+01  7.554609121E+01  1.215700987E-06  0.00000E+00  9.000E+00
     -14     1     6     6     0     0  1.862460932E+01 -2.440413532E+01  1.770762052E+01  3.544005809E+01  1.039242493E-06  0.00000E+00  9.000E+00
       5     1     3     3   502     0  2.888177087E+01  7.740505924E+01  3.124251377E+01  8.845539582E+01  4.750000000E+00  0.00000E+00  9.000E+00
      -5     1     4     4     0   504  1.345437807E+01  5.816637991E+01 -3.149379076E+01  6.766660474E+01  4.750000000E+00  0.00000E+00  9.000E+00
      21     1     1     2   503   511 -1.962145208E+01 -2.048275656E+01  3.081112428E+01  4.187923206E+01  8.920806376E-07  0.00000E+00  9.000E+00
</event>
<event>
     13  10001  1.00000E+00  5.99774E+01 -1.00000E+00  1.37555E-01
      21    -1     0     0   513   512  0.000000000E+00  0.000000000E+00  1.079712868E+02  1.079712868E+02  0.000000000E+00  0.00000E+00  9.000E+00
       1    -1     0     0   502     0  0.000000000E+00  0.000000000E+00 -1.083805672E+03  1.083805672E+03  0.000000000E+00  0.00000E+00  9.000E+00
       6     2     1     2   502     0 -1.359281088E+02 -4.587075949E-01 -7.368622414E+02  7.687825596E+02  1.720000000E+02  0.00000E+00  9.000E+00
      -6     2     1     2     0   512  7.987075811E+01  2.178610884E+01 -2.880076473E+02  3.455233385E+02  1.720000000E+02  0.00000E+00  9.000E+00
      24     2     3     3     0     0 -6.013733679E+01 -5.444444757E+01 -5.257646723E+02  5.380371427E+02  8.046601247E+01  0.00000E+00  9.000E+00
     -24     2     4     4     0     0  1.031338419E+02  5.815691146E+01 -2.534707660E+02  2.900313118E+02  7.649782312E+01  0.00000E+00  9.000E+00
     -11     1     5     5     0     0 -2.146231326E-01 -3.683092309E+01 -8.191344523E+01  8.981300278E+01  1.348699152E-06  0.00000E+00  9.000E+00
      12     1     5     5     0     0 -5.992271366E+01 -1.761352448E+01 -4.438512271E+02  4.482241400E+02  7.629394531E-06  0.00000E+00  9.000E+00
      13     1     6     6     0     0  3.315572768E+01  6.038916141E+01 -1.010561152E+02  1.223049120E+02  0.000000000E+00  0.00000E+00  9.000E+00
     -14     1     6     6     0     0  6.997811423E+01 -2.232249941E+00 -1.524146508E+02  1.677263998E+02  1.907348633E-06  0.00000E+00  9.000E+00
       5     1     3     3   502     0 -7.579077196E+01  5.398573997E+01 -2.110975691E+02  2.307454169E+02  4.750000000E+00  0.00000E+00  9.000E+00
      -5     1     4     4     0   512 -2.326308380E+01 -3.637080262E+01 -3.453688132E+01  5.549202665E+01  4.750000000E+00  0.00000E+00  9.000E+00
       1     1     1     2   513     0  5.605735064E+01 -2.132740125E+01  4.903550368E+01  7.747106057E+01  1.651812370E-06  0.00000E+00  9.000E+00
</event>
<event>
     13  10001  1.00000E+00  5.12804E+01 -1.00000E+00  1.41461E-01
      21    -1     0     0   511   503  0.000000000E+00  0.000000000E+00  1.578191758E+02  1.578191758E+02  0.000000000E+00  0.00000E+00  9.000E+00
      21    -1     0     0   503   504  0.000000000E+00  0.000000000E+00 -3.182504268E+02  3.182504268E+02  0.000000000E+00  0.00000E+00  9.000E+00
       6     2     1     2   502     0  3.843477040E+01  4.514791480E+01 -1.075629757E+02  2.113512705E+02  1.720000000E+02  0.00000E+00  9.000E+00
      -6     2     1     2     0   504 -2.613482306E+01  4.635539203E+00 -9.506602483E+01  1.983080086E+02  1.720000000E+02  0.00000E+00  9.000E+00
      24     2     3     3     0     0 -4.017921474E+01  3.383795778E+01 -8.890104144E+01  1.296267082E+02  7.836014057E+01  0.00000E+00  9.000E+00
     -24     2     4     4     0     0  2.522348747E+01  5.465428838E+01 -6.840543619E+01  1.216731548E+02  8.063335130E+01  0.00000E+00  9.000E+00
     -11     1     5     5     0     0 -2.493515226E+00 -2.463592314E+01 -2.419388824E+01  3.461922234E+01  0.000000000E+00  0.00000E+00  9.000E+00
      12     1     5     5     0     0 -3.768569951E+01  5.847388093E+01 -6.470715320E+01  9.500748588E+01  9.536743164E-07  0.00000E+00  9.000E+00
      13     1     6     6     0     0 -1.339182149E+01 -1.265732477E+01 -2.970659310E+01  3.495755178E+01  5.840038640E-07  0.00000E+00  9.000E+00
     -14     1     6     6     0     0  3.861530895E+01  6.731161316E+01 -3.869884309E+01  8.671560302E+01  1.168007728E-06  0.00000E+00  9.000E+00
       5     1     3     3   502     0  7.861398513E+01  1.130995702E+01 -1.866193431E+01  8.172456227E+01  4.750000000E+00  0.00000E+00  9.000E+00
      -5     1     4     4     0   504 -5.135831053E+01 -5.001874918E+01 -2.666058865E+01  7.663485380E+01  4.750000000E+00  0.00000E+00  9.000E+00
      21     1     1     2   511   502 -1.229994734E+01 -4.978345401E+01  4.219774961E+01  6.641032352E+01  1.261592536E-06  0.00000E+00  9.000E+00
</event>
<event>
     13  10001  1.00000E+00  3.21798E+01 -1.00000E+00  1.54556E-01
      21    -1     0     0   503   504  0.000000000E+00  0.000000000E+00  1.498636150E+02  1.498636150E+02  0.000000000E+00  0.00000E+00  9.000E+00
      21    -1     0     0   512   503  0.000000000E+00  0.000000000E+00 -5.819964571E+02  5.819964571E+02  0.000000000E+00  0.00000E+00  9.000E+00
       6     2     1     2   502     0  4.176414389E+00 -1.058262116E+02  3.180161044E+01  2.044797592E+02  1.720000000E+02  0.00000E+00  9.000E+00
      -6     2     1     2     0   504  1.277778770E+01  1.331774735E+02 -3.900313870E+02  4.467751047E+02  1.720000000E+02  0.00000E+00  9.000E+00
      24     2     3     3     0     0  6.764334588E+01 -8.599342682E+01  2.370282562E+01  1.373266240E+02  7.953795340E+01  0.00000E+00  9.000E+00
     -24     2     4     4     0     0  6.032072205E+01  9.114665348E+01 -1.689977632E+02  2.167634837E+02  8.049758969E+01  0.00000E+00  9.000E+00
     -11     1     5     5     0     0  2.953614105E+01 -7.724167964E+01 -1.298559287E+01  8.370953544E+01  2.112393993E-06  0.00000E+00  9.000E+00
      12     1     5     5     0     0  3.810720484E+01 -8.751747176E+00  3.668841849E+01  5.361708860E+01  9.536743164E-07  0.00000E+00  9.000E+00
      13     1     6     6     0     0  7.001353862E+00 -2.146956592E+00 -7.086178141E+01  7.123917772E+01  9.536743164E-07  0.00000E+00  9.000E+00
     -14     1     6     6     0     0  5.331936819E+01  9.329361007E+01 -9.813598179E+01  1.455243060E+02  1.907348633E-06  0.00000E+00  9.000E+00
       5     1     3     3   502     0 -6.346693149E+01 -1.983278474E+01  8.098784826E+00  6.715313514E+01  4.750000000E+00  0.00000E+00  9.000E+00
      -5     1     4     4     0   504 -4.754293435E+01  4.203082006E+01 -2.210336238E+02  2.300116210E+02  4.750000000E+00  0.00000E+00  9.000E+00
      21     1     1     2   512   502 -1.695420209E+01 -2.735126198E+01 -7.390306555E+01  8.060520825E+01  9.536743164E-07  0.00000E+00  9.000E+00
</event>
<event>
     13  10001  1.00000E+00  4.98151E+01 -1.00000E+00  1.42209E-01
      21    -1     0     0   502   503  0.000000000E+00  0.000000000E+00  2.142577041E+02  2.142577041E+02  0.000000000E+00  0.00000E+00  9.000E+00
      21    -1     0     0   503   511  0.000000000E+00  0.000000000E+00 -5.188146122E+02  5.188146122E+02  0.000000000E+00  0.00000E+00  9.000E+00
       6     2     1     2   502     0 -6.599987248E+01 -1.590103083E+01  1.093138056E+02  2.148076676E+02  1.720000000E+02  0.00000E+00  9.000E+00
      -6     2     1     2     0   504  9.680567964E+01  5.504878689E+01 -1.611521905E+02  2.606832121E+02  1.720000000E+02  0.00000E+00  9.000E+00
      24     2     3     3     0     0  1.813415103E+01 -4.045957845E+01  3.556623011E+01  1.001650770E+02  8.247582076E+01  0.00000E+00  9.000E+00
     -24     2     4     4     0     0 -1.477762223E+00  1.645392529E+01 -2.241203995E+01  8.626821797E+01  8.165164088E+01  0.00000E+00  9.000E+00
     -11     1     5     5     0     0  3.716126701E+01  1.099337500E+01  1.355236683E+01  4.105460640E+01  6.529361695E-07  0.00000E+00  9.000E+00
      12     1     5     5     0     0 -1.902711598E+01 -5.145295345E+01  2.201386327E+01  5.911047063E+01  1.815741803E-06  0.00000E+00  9.000E+00
      13     1     6     6     0     0  3.604982408E+01  1.834578753E+01 -2.667307172E+01  4.845214641E+01  1.581489940E-06  0.00000E+00  9.000E+00
     -14     1     6     6     0     0 -3.752758631E+01 -1.891862244E+00  4.261031772E+00  3.781607156E+01  1.027207848E-06  0.00000E+00  9.000E+00
       5     1     3     3   502     0 -8.413402352E+01  2.455854763E+01  7.374757547E+01  1.146425905E+02  4.750000000E+00  0.00000E+00  9.000E+00
      -5     1     4     4     0   504  9.828344187E+01  3.859486160E+01 -1.387401506E+02  1.744149941E+02  4.750000000E+00  0.00000E+00  9.000E+00
      21     1     1     2   504   511 -3.080580716E+01 -3.914775606E+01 -2.527185231E+02  2.575814366E+02  4.672030912E-06  0.00000E+00  9.000E+00
</event>
<event>
     13  10001  1.00000E+00  3.44130E+01 -1.00000E+00  1.52518E-01
       3    -1     0     0   502     0  0.000000000E+00  0.000000000E+00  9.290159084E+01  9.290159084E+01  0.000000000E+00  0.00000E+00  9.000E+00
      21    -1     0     0   513   512  0.000000000E+00  0.000000000E+00 -5.666959939E+02  5.666959939E+02  0.000000000E+00  0.00000E+00  9.000E+00
       6     2     1     2   502     0 -8.703902914E-01 -1.870004858E+01 -2.252127903E+02  2.839986802E+02  1.720000000E+02  0.00000E+00  9.000E+00
      -6     2     1     2     0   512  1.759139103E+01  4.877771421E+01 -6.850656416E+01  1.922651081E+02  1.720000000E+02  0.00000E+00  9.000E+00
      24     2     3     3     0     0  2.711793202E+01 -3.449274472E+01 -4.804557997E+01  1.038777809E+02  8.097582308E+01  0.00000E+00  9.000E+00
     -24     2     4     4     0     0  3.028215086E+01 -2.891720115E+01 -7.047221664E+01  1.133728933E+02  7.831900431E+01  0.00000E+00  9.000E+00
     -11     1     5     5     0     0 -1.864333561E-01 -3.349556062E+01 -6.400180688E+01  7.223723848E+01  1.651812370E-06  0.00000E+00  9.000E+00
      12     1     5     5     0     0  2.730436537E+01 -9.971840998E-01  1.595622691E+01  3.164054237E+01  2.384185791E-07  0.00000E+00  9.000E+00
      13     1     6     6     0     0  3.715718939E+01 -3.928838096E+00  9.680570855E-01  3.737685951E+01  7.934081264E-07  0.00000E+00  9.000E+00
     -14     1     6     6     0     0 -6.875038532E+00 -2.498836306E+01 -7.144027373E+01  7.599603380E+01  1.348699152E-06  0.00000E+00  9.000E+00
       5     1     3     3   502     0 -2.798832231E+01  1.579269614E+01 -1.771672104E+02  1.801208993E+02  4.750000000E+00  0.00000E+00  9.000E+00
      -5     1     4     4     0   512 -1.269075982E+01  7.769491536E+01  1.965652483E+00  7.889221474E+01  4.750000000E+00  0.00000E+00  9.000E+00
       3     1     1     2   513     0 -1.672100074E+01 -3.007766563E+01 -1.800750486E+02  1.833337965E+02  2.697398305E-06  0.00000E+00  9.000E+00
</event>
<event>
     13  10001  1.00000E+00  1.40798E+01 -1.00000E+00  1.85223E-01
       2    -1     0     0   511     0  0.000000000E+00  0.000000000E+00  4.563676851E+01  4.563676851E+01  0.000000000E+00  0.00000E+00  9.000E+00
      -2    -1     0     0     0   512  0.000000000E+00  0.000000000E+00 -1.649420533E+03  1.649420533E+03  0.000000000E+00  0.00000E+00  9.000E+00
       6     2     1     2   502     0 -4.225874727E+01 -9.552236990E+01 -2.871512205E+02  3.506424793E+02  1.720000000E+02  0.00000E+00  9.000E+00
      -6     2     1     2     0   512  4.624641497E+01  1.090256603E+02 -1.313492132E+03  1.329989063E+03  1.720000000E+02  0.00000E+00  9.000E+00
      24     2     3     3     0     0  1.991453786E+01 -6.497350706E+01 -7.800244076E+01  1.302688762E+02  7.916725266E+01  0.00000E+00  9.000E+00
     -24     2     4     4     0     0 -1.157646883E+01  5.906768854E+01 -1.073124856E+03  1.077722785E+03  7.916083972E+01  0.00000E+00  9.000E+00
     -11     1     5     5     0     0  6.497890166E+00  1.377574669E+01  4.041442416E+00  1.575839555E+01  1.032382731E-07  0.00000E+00  9.000E+00
      12     1     5     5     0     0  1.341664769E+01 -7.874925375E+01 -8.204388317E+01  1.145104806E+02  3.568322551E-06  0.00000E+00  9.000E+00
      13     1     6     6     0     0 -1.547731698E+01  4.614700256E+01 -2.618305873E+02  2.663162587E+02  3.814697266E-06  0.00000E+00  9.000E+00
     -14     1     6     6     0     0  3.900848156E+00  1.292068597E+01 -8.112942686E+02  8.114065264E+02  1.078959322E-05  0.00000E+00  9.000E+00
       5     1     3     3   502     0 -6.217328513E+01 -3.054886284E+01 -2.091487798E+02  2.203736032E+02  4.750000000E+00  0.00000E+00  9.000E+00
      -5     1     4     4     0   512  5.782288380E+01  4.995797173E+01 -2.403672765E+02  2.522662778E+02  4.750000000E+00  0.00000E+00  9.000E+00
      21     1     1     2   511   502 -3.987667706E+00 -1.350329036E+01 -3.140411480E+00  1.442575920E+01  5.623090942E-07  0.00000E+00  9.000E+00
</event>
<event>
     13  10001  1.00000E+00  5.39466E+01 -1.00000E+00  1.40173E-01
      21    -1     0     0   512   503  0.000000000E+00  0.000000000E+00  3.116875717E+02  3.116875717E+02  0.000000000E+00  0.00000E+00  9.000E+00
      21    -1     0     0   503   504  0.000000000E+00  0.000000000E+00 -2.006276579E+02  2.006276579E+02  0.000000000E+00  0.00000E+00  9.000E+00
       6     2     1     2   502     0  1.459871427E+01  7.000355936E+01  1.590237065E+02  2.449207219E+02  1.720000000E+02  0.00000E+00  9.000E+00
      -6     2     1     2     0   504 -5.057562057E+01 -2.980532227E+01 -8.632219912E+01  2.012008268E+02  1.720000000E+02  0.00000E+00  9.000E+00
      24     2     3     3     0     0  7.507157427E+01  6.044111461E+01  1.081949421E+02  1.652053975E+02  7.935873159E+01  0.00000E+00  9.000E+00
     -24     2     4     4     0     0 -2.190318576E+01  4.828622354E+01 -6.017323862E+01  1.138696830E+02  8.083425709E+01  0.00000E+00  9.000E+00
     -11     1     5     5     0     0  2.207972925E-01  4.128789097E+01  6.409696146E+01  7.624407623E+01  9.536743164E-07  0.00000E+00  9.000E+00
      12     1     5     5     0     0  7.485077698E+01  1.915322364E+01  4.409798061E+01  8.896132128E+01  1.168007728E-06  0.00000E+00  9.000E+00
      13     1     6     6     0     0  1.499475253E+01  2.390757503E+01  1.082392481E+01  3.022535518E+01  8.596304120E-07  0.00000E+00  9.000E+00
     -14     1     6     6     0     0 -3.689793829E+01  2.437864851E+01 -7.099716343E+01  8.364432777E+01  1.651812370E-06  0.00000E+00  9.000E+00
       5     1     3     3   502     0 -6.047286000E+01  9.562444751E+00  5.082876440E+01  7.971532435E+01  4.750000000E+00  0.00000E+00  9.000E+00
      -5     1     4     4     0   504 -2.867243481E+01 -7.809154581E+01 -2.614896050E+01  8.733114382E+01  4.750000000E+00  0.00000E+00  9.000E+00
      21     1     1     2   512   502  3.597690630E+01 -4.019823709E+01  3.835840650E+01  6.619368098E+01  8.259061849E-07  0.00000E+00  9.000E+00
</event>
<event>
     13  10001  1.00000E+00  3.48542E+01 -1.00000E+00  1.52138E-01
      21    -1     0     0   503   504  0.000000000E+00  0.000000000E+00  9.683734987E+01  9.683734987E+01  0.000000000E+00  0.00000E+00  9.000E+00
       1    -1     0     0   502     0  0.000000000E+00  0.000000000E+00 -4.358529995E+02  4.358529995E+02  0.000000000E+00  0.00000E+00  9.000E+00
       6     2     1     2   502     0  2.017127917E+01 -2.167674029E+01 -1.043274021E+02  2.033346218E+02  1.720000000E+02  0.00000E+00  9.000E+00
      -6     2     1     2     0   504 -2.614611774E+01 -1.266147954E+01 -1.259122043E+02  2.151320890E+02  1.720000000E+02  0.00000E+00  9.000E+00
      24     2     3     3     0     0  1.480131140E+01  3.122031917E+01 -1.196558945E+02  1.477967011E+02  7.957728716E+01  0.00000E+00  9.000E+00
     -24     2     4     4     0     0 -5.122863647E+01  4.947022342E+01 -6.410267304E+01  1.238497692E+02  7.847252029E+01  0.00000E+00  9.000E+00
     -11     1     5     5     0     0 -1.037831726E+01  8.344713569E+00  8.101365944E+00  1.558768244E+01  1.059555342E-06  0.00000E+00  9.000E+00
      12     1     5     5     0     0  2.517962866E+01  2.287560560E+01 -1.277572604E+02  1.322090187E+02  4.046097457E-06  0.00000E+00  9.000E+00
      13     1     6     6     0     0 -6.972213046E+01  3.208431941E+01 -3.258203572E+01  8.337966226E+01  2.236564522E-06  0.00000E+00  9.000E+00
     -14     1     6     6     0     0  1.849349399E+01  1.738590401E+01 -3.152063733E+01  4.047010694E+01  8.259061849E-07  0.00000E+00  9.000E+00
       5     1     3     3   502     0  5.369967771E+00 -5.289705946E+01  1.532849233E+01  5.553792065E+01  4.750000000E+00  0.00000E+00  9.000E+00
      -5     1     4     4     0   504  2.508251873E+01 -6.213170296E+01 -6.180953127E+01  9.128231983E+01  4.750000000E+00  0.00000E+00  9.000E+00
       1     1     1     2   503     0  5.974838562E+00  3.433821983E+01 -1.087760432E+02  1.142236386E+02  1.348699152E-06  0.00000E+00  9.000E+00
</event>
<event>
     13  10001  1.00000E+00  2.16512E+01 -1.00000E+00  1.67836E-01
      21    -1     0     0   503   504  0.000000000E+00  0.000000000E+00  1.466672962E+02  1.466672962E+02  0.000000000E+00  0.00000E+00  9.000E+00
       1    -1     0     0   502     0  0.000000000E+00  0.000000000E+00 -8.239631958E+02  8.239631958E+02  0.000000000E+00  0.00000E+00  9.000E+00
       6     2     1     2   502     0 -5.493097452E+00 -1.119937460E+02 -1.904451770E+02  2.800466724E+02  1.720000000E+02  0.00000E+00  9.000E+00
      -6     2     1     2     0   504  5.133647208E+00  1.336419295E+02 -1.516821478E+01  2.184046574E+02  1.720000000E+02  0.00000E+00  9.000E+00
      24     2     3     3     0     0 -5.967886809E+01 -5.088178455E+01 -1.547997766E+02  1.908058373E+02  7.933078482E+01  0.00000E+00  9.000E+00
     -24     2     4     4     0     0  1.089651830E-01 -1.130475642E+00 -2.095799224E+01  8.333085304E+01  8.064430409E+01  0.00000E+00  9.000E+00
     -11     1     5     5     0     0 -2.380741740E+01  2.062226548E+01 -4.100461951E+01  5.170541343E+01  9.536743164E-07  0.00000E+00  9.000E+00
      12     1     5     5     0     0 -3.587145069E+01 -7.150405004E+01 -1.137951571E+02  1.391004239E+02  2.697398305E-06  0.00000E+00  9.000E+00
      13     1     6     6     0     0 -3.443409495E+01  1.352901196E+01  5.518214483E+00  3.740577163E+01  1.105501472E-06  0.00000E+00  9.000E+00
     -14     1     6     6     0     0  3.454306014E+01 -1.465948760E+01 -2.647620673E+01  4.592508142E+01  1.430511475E-06  0.00000E+00  9.000E+00
       5     1     3     3   502     0  5.418577064E+01 -6.111196142E+01 -3.564540038E+01  8.924083503E+01  4.750000000E+00  0.00000E+00  9.000E+00
      -5     1     4     4     0   504  5.024682025E+00  1.347724051E+02  5.789777463E+00  1.350738044E+02  4.750000000E+00  0.00000E+00  9.000E+00
       1     1     1     2   503     0  3.594502436E-01 -2.164818348E+01 -4.716825078E+02  4.721791622E+02  7.629394531E-06  0.00000E+00  9.000E+00
</event>
<event>
     13  10001  1.00000E+00  2.04495E+01 -1.00000E+00  1.69947E-01
      21    -1     0     0   503   504  0.000000000E+00  0.000000000E+00  5.829996606E+02  5.829996606E+02  0.000000000E+00  0.00000E+00  9.000E+00
      21    -1     0     0   502   511  0.000000000E+00  0.000000000E+00 -2.547702834E+02  2.547702834E+02  0.000000000E+00  0.00000E+00  9.000E+00
       6     2     1     2   502     0  2.015005287E+01 -2.977972905E+00  4.892921883E+02  5.190430989E+02  1.720000000E+02  0.00000E+00  9.000E+00
      -6     2     1     2     0   504 -6.045473728E-01  8.990825581E+00 -1.683518572E+01  1.730567072E+02  1.720000000E+02  0.00000E+00  9.000E+00
      24     2     3     3     0     0 -5.302605592E+01  1.507359550E+01  2.991745673E+02  3.144755689E+02  7.968993539E+01  0.00000E+00  9.000E+00
     -24     2     4     4     0     0 -5.604387023E+01 -1.014983141E+01 -4.391833787E+01  1.082806090E+02  8.094402641E+01  0.00000E+00  9.000E+00
     -11     1     5     5     0     0  1.300751496E+01  2.661151638E+01  8.167193886E+01  8.687734945E+01  1.348699152E-06  0.00000E+00  9.000E+00
      12     1     5     5     0     0 -6.603357088E+01 -1.153792088E+01  2.175026285E+02  2.275982194E+02  2.697398305E-06  0.00000E+00  9.000E+00
      13     1     6     6     0     0  7.987619115E+00 -2.313822921E+01 -3.445253352E+01  4.226294803E+01  1.066240300E-06  0.00000E+00  9.000E+00
     -14     1     6     6     0     0 -6.403148934E+01  1.298839780E+01 -9.465804350E+00  6.601766094E+01  1.526623782E-06  0.00000E+00  9.000E+00
       5     1     3     3   502     0  7.317610879E+01 -1.805156841E+01  1.901176209E+02  2.045675300E+02  4.750000000E+00  0.00000E+00  9.000E+00
      -5     1     4     4     0   504  5.543932285E+01  1.914065699E+01  2.708315215E+01  6.477609821E+01  4.750000000E+00  0.00000E+00  9.000E+00
      21     1     1     2   503   511 -1.954550549E+01 -6.012852676E+00 -1.442276253E+02  1.456701379E+02  1.907348633E-06  0.00000E+00  9.000E+00
</event>
<event>
     13  10001  1.00000E+00  3.08457E+02 -1.00000E+00  1.06908E-01
      21    -1     0     0   503   504  0.000000000E+00  0.000000000E+00  4.343932946E+02  4.343932946E+02  0.000000000E+00  0.00000E+00  9.000E+00
       2    -1     0     0   502     0  0.000000000E+00  0.000000000E+00 -7.594122626E+02  7.594122626E+02  0.000000000E+00  0.00000E+00  9.000E+00
       6     2     1     2   502     0  3.587232612E+01 -9.006616504E+01  2.105173212E+02  2.886178795E+02  1.720000000E+02  0.00000E+00  9.000E+00
      -6     2     1     2     0   504 -1.670395522E+02 -1.891132008E+02 -2.203343286E+01  3.061625171E+02  1.720000000E+02  0.00000E+00  9.000E+00
      24     2     3     3     0     0 -3.416857320E+01 -8.525558232E+01  1.048654366E+02  1.616779233E+02  8.189618650E+01  0.00000E+00  9.000E+00
     -24     2     4     4     0     0 -4.005352755E+01 -1.428029667E+02 -2.429240979E+01  1.708933273E+02  8.134762296E+01  0.00000E+00  9.000E+00
     -11     1     5     5     0     0 -3.058601082E+01 -2.001315253E+00  5.917570806E+01  6.664288218E+01  1.907348633E-06  0.00000E+00  9.000E+00
      12     1     5     5     0     0 -3.582562375E+00 -8.325426707E+01  4.568972855E+01  9.503504108E+01  9.536743164E-07  0.00000E+00  9.000E+00
      13     1     6     6     0     0 -4.093807153E+01 -4.175387127E+01 -3.676697035E+01  6.907330581E+01  1.507891493E-06  0.00000E+00  9.000E+00
     -14     1     6     6     0     0  8.845439795E-01 -1.010490955E+02  1.247456056E+01  1.018200215E+02  2.770173559E-06  0.00000E+00  9.000E+00
       5     1     3     3   502     0  7.004089932E+01 -4.810582721E+00  1.056518846E+02  1.269399563E+02  4.750000000E+00  0.00000E+00  9.000E+00
      -5     1     4     4     0   504 -1.269860246E+02 -4.631023402E+01  2.258976927E+00  1.352691898E+02  4.750000000E+00  0.00000E+00  9.000E+00
       2     1     1     2   503     0  1.311672260E+02  2.791793658E+02 -5.135028564E+02  5.990251605E+02  0.000000000E+00  0.00000E+00  9.000E+00
</event>
<event>
     13  10001  1.00000E+00  2.69423E+01 -1.00000E+00  1.60231E-01
      21    -1     0     0   503   504  0.000000000E+00  0.000000000E+00  4.232649271E+01  4.232649271E+01  0.000000000E+00  0.00000E+00  9.000E+00
       2    -1     0     0   502     0  0.000000000E+00  0.000000000E+00 -1.462419125E+03  1.462419125E+03  0.000000000E+00  0.00000E+00  9.000E+00
       6     2     1     2   502     0  4.090866784E+01 -7.744273090E+01 -3.978429437E+02  4.421921568E+02  1.720000000E+02  0.00000E+00  9.000E+00
      -6     2     1     2     0   504 -3.812240064E+01  1.042405685E+02 -5.093298500E+02  5.489265066E+02  1.720000000E+02  0.00000E+00  9.000E+00
      24     2     3     3     0     0  8.891532230E+01 -8.299565038E+01 -3.165611493E+02  3.475097065E+02  7.588031604E+01  0.00000E+00  9.000E+00
     -24     2     4     4     0     0 -8.131606557E+01  7.988626763E+01 -2.573648707E+02  2.920846526E+02  7.799134152E+01  0.00000E+00  9.000E+00
     -11     1     5     5     0     0 -1.228306369E+01 -2.192053726E+01 -5.834832467E+01  6.352881708E+01  9.536743164E-07  0.00000E+00  9.000E+00
      12     1     5     5     0     0  1.011983860E+02 -6.107511312E+01 -2.582128246E+02  2.839808894E+02  0.000000000E+00  0.00000E+00  9.000E+00
      13     1     6     6     0     0 -6.503168330E+01  1.786262560E+01 -1.760602064E+02  1.885348495E+02  2.697398305E-06  0.00000E+00  9.000E+00
     -14     1     6     6     0     0 -1.628438227E+01  6.202364203E+01 -8.130466435E+01  1.035498031E+02  1.348699152E-06  0.00000E+00  9.000E+00
       5     1     3     3   502     0 -4.800665446E+01  5.552919480E+00 -8.128179445E+01  9.468245031E+01  4.750000000E+00  0.00000E+00  9.000E+00
      -5     1     4     4     0   504  4.319366493E+01  2.435430084E+01 -2.519649793E+02  2.568418540E+02  4.750000000E+00  0.00000E+00  9.000E+00
       2     1     1     2   503     0 -2.786267204E+00 -2.679783756E+01 -5.129198389E+02  5.136269546E+02  7.629394531E-06  0.00000E+00  9.000E+00
</event>
<event>
     13  10001  1.00000E+00  3.22835E+02 -1.00000E+00  1.06253E-01
      21    -1     0     0   502   503  0.000000000E+00  0.000000000E+00  1.728613714E+03  1.728613714E+03  0.000000000E+00  0.00000E+00  9.000E+00
       2    -1     0     0   503     0  0.000000000E+00  0.000000000E+00 -2.847357000E+02  2.847357000E+02  0.000000000E+00  0.00000E+00  9.000E+00
       6     2     1     2   502     0  1.316039391E+02  9.658942842E+01  1.011715835E+03  1.039135239E+03  1.720000000E+02  0.00000E+00  9.000E+00
      -6     2     1     2     0   504 -3.940989240E+02  9.134350730E+01  4.765551593E+02  6.483412821E+02  1.720000000E+02  0.00000E+00  9.000E+00
      24     2     3     3     0     0  7.994470588E+01  6.903712766E+01  3.444710096E+02  3.693098700E+02  8.106924586E+01  0.00000E+00  9.000E+00
     -24     2     4     4     0     0 -2.818540386E+02  1.297917253E+02  3.495795789E+02  4.744949699E+02  8.155981487E+01  0.00000E+00  9.000E+00
     -11     1     5     5     0     0  4.032344294E+01  3.513964185E+01  6.119510067E+01  8.127493357E+01  2.939421655E-06  0.00000E+00  9.000E+00
      12     1     5     5     0     0  3.962126294E+01  3.389748581E+01  2.832759090E+02  2.880349365E+02  6.607249480E-06  0.00000E+00  9.000E+00
      13     1     6     6     0     0 -1.156040783E+02  3.135762710E+01  1.865605679E+02  2.217035164E+02  3.814697266E-06  0.00000E+00  9.000E+00
     -14     1     6     6     0     0 -1.662499603E+02  9.843409820E+01  1.630190110E+02  2.527914535E+02  5.046370146E-06  0.00000E+00  9.000E+00
       5     1     3     3   502     0  5.165923321E+01  2.755230076E+01  6.672448256E+02  6.698253693E+02  4.750000000E+00  0.00000E+00  9.000E+00
      -5     1     4     4     0   504 -1.122448854E+02 -3.844821799E+01  1.269755803E+02  1.738463122E+02  4.750000000E+00  0.00000E+00  9.000E+00
       2     1     1     2   504     0  2.624949849E+02 -1.879329357E+02 -4.439298029E+01  3.258728926E+02  6.572746635E-06  0.00000E+00  9.000E+00
</event>
<event>
     13  10001  1.00000E+00  1.98297E+01 -1.00000E+00  1.71107E-01
      21    -1     0     0   503   504  0.000000000E+00  0.000000000E+00  4.959623566E+02  4.959623566E+02  0.000000000E+00  0.00000E+00  9.000E+00
      21    -1     0     0   511   503  0.000000000E+00  0.000000000E+00 -1.060956314E+02  1.060956314E+02  0.000000000E+00  0.00000E+00  9.000E+00
       6     2     1     2   502     0  9.037186905E+01 -1.058599800E+01  1.296574854E+02  2.338251518E+02  1.720000000E+02  0.00000E+00  9.000E+00
      -6     2     1     2     0   504 -8.220366806E+01  2.865524628E+01  2.801775607E+02  3.400912108E+02  1.720000000E+02  0.00000E+00  9.000E+00
      24     2     3     3     0     0  4.077091770E-01 -1.202520606E+01  1.058814583E+02  1.406399419E+02  9.178201469E+01  0.00000E+00  9.000E+00
     -24     2     4     4     0     0 -1.151134158E+02  7.916242378E+00  2.603349389E+02  2.961657066E+02  8.140073699E+01  0.00000E+00  9.000E+00
     -11     1     5     5     0     0  2.080009365E+01  1.091614294E+01 -6.311708915E+00  2.432372797E+01  1.092571186E-06  0.00000E+00  9.000E+00
      12     1     5     5     0     0 -2.039238448E+01 -2.294134900E+01  1.121931672E+02  1.163162139E+02  1.348699152E-06  0.00000E+00  9.000E+00
      13     1     6     6     0     0 -2.943248790E+01 -2.016061406E+01  2.342538053E+01  4.267868503E+01  8.920806376E-07  0.00000E+00  9.000E+00
     -14     1     6     6     0     0 -8.568092792E+01  2.807685644E+01  2.369095584E+02  2.534870216E+02  3.814697266E-06  0.00000E+00  9.000E+00
       5     1     3     3   502     0  8.996415987E+01  1.439208058E+00  2.377602712E+01  9.318520992E+01  4.750000000E+00  0.00000E+00  9.000E+00
      -5     1     4     4     0   504  3.290974775E+01  2.073900390E+01  1.984262177E+01  4.392550420E+01  4.750000000E+00  0.00000E+00  9.000E+00
      21     1     1     2   511   502 -8.168200989E+00 -1.806924828E+01 -1.996832095E+01  2.814162544E+01  4.129530925E-07  0.00000E+00  9.000E+00
</event>
<event>
     13  10001  1.00000E+00  9.66959E+01 -1.00000E+00  1.26902E-01
      21    -1     0     0   512   503  0.000000000E+00  0.000000000E+00  1.779821735E+02  1.779821735E+02  0.000000000E+00  0.00000E+00  9.000E+00
      21    -1     0     0   503   504  0.000000000E+00  0.000000000E+00 -6.484351370E+02  6.484351370E+02  0.000000000E+00  0.00000E+00  9.000E+00
       6     2     1     2   502     0 -2.240981824E+01  1.141590406E+02 -3.540572500E+02  4.104570900E+02  1.720000000E+02  0.00000E+00  9.000E+00
      -6     2     1     2     0   504 -3.518878273E+01 -3.648994179E+01 -2.135750951E+02  2.788693019E+02  1.720000000E+02  0.00000E+00  9.000E+00
      24     2     3     3     0     0 -3.949395824E+01  7.287905667E+01 -9.931836824E+01  1.517867104E+02  7.939733975E+01  0.00000E+00  9.000E+00
     -24     2     4     4     0     0 -6.362511503E+01  3.167659361E+00 -6.424904087E+01  1.217000196E+02  8.139266666E+01  0.00000E+00  9.000E+00
     -11     1     5     5     0     0  2.633461946E+00  7.260433039E+01 -6.240094377E+01  9.577161216E+01  6.743495762E-07  0.00000E+00  9.000E+00
      12     1     5     5     0     0 -4.212742018E+01  2.747262793E-01 -3.691742447E+01  5.601509828E+01  9.536743164E-07  0.00000E+00  9.000E+00
      13     1     6     6     0     0 -4.920216640E+01 -3.588268294E+01 -4.563903011E+01  7.610086190E+01  0.000000000E+00  0.00000E+00  9.000E+00
     -14     1     6     6     0     0 -1.442294863E+01  3.905034230E+01 -1.861001077E+01  4.559915769E+01  1.526623782E-06  0.00000E+00  9.000E+00
       5     1     3     3   502     0  1.708413999E+01  4.127998390E+01 -2.547388817E+02  2.586703796E+02  4.750000000E+00  0.00000E+00  9.000E+00
      -5     1     4     4     0   504  2.843633230E+01 -3.965760115E+01 -1.493260542E+02  1.571692823E+02  4.750000000E+00  0.00000E+00  9.000E+00
      21     1     1     2   512   502  5.759860097E+01 -7.766909878E+01  9.717938159E+01  1.370909185E+02  1.907348633E-06  0.00000E+00  9.000E+00
</event>
<event>
     13  10001  1.00000E+00  1.16216E+01 -1.00000E+00  1.94244E-01
       2    -1     0     0   511     0  0.000000000E+00  0.000000000E+00  2.876717814E+02  2.876717814E+02  0.000000000E+00  0.00000E+00  9.000E+00
      -2    -1     0     0     0   512  0.000000000E+00  0.000000000E+00 -1.693643697E+02  1.693643697E+02  0.000000000E+00  0.00000E+00  9.000E+00
       6     2     1     2   502     0  7.376219186E+01 -3.503614779E+00  1.291852360E+02  2.274334221E+02  1.720000000E+02  0.00000E+00  9.000E+00
      -6     2     1     2     0   512 -6.214560545E+01  3.160960975E+00 -4.931965129E+01  1.894425928E+02  1.720000000E+02  0.00000E+00  9.000E+00
      24     2     3     3     0     0  5.538036617E+01  2.520153631E+01  1.548112225E+02  1.845250208E+02  7.988032479E+01  0.00000E+00  9.000E+00
     -24     2     4     4     0     0  1.099136413E+01  4.996516503E+01 -2.790947875E+01  9.988474652E+01  8.112148779E+01  0.00000E+00  9.000E+00
     -11     1     5     5     0     0  9.773692399E-01  2.509300681E+01  5.632592583E+00  2.573597367E+01  7.794318694E-07  0.00000E+00  9.000E+00
      12     1     5     5     0     0  5.440299693E+01  1.085295003E-01  1.491786300E+02  1.587890471E+02  1.907348633E-06  0.00000E+00  9.000E+00
      13     1     6     6     0     0  2.031631012E+01 -1.764769734E+01 -2.388829552E+00  2.701666495E+01  8.237525798E-07  0.00000E+00  9.000E+00
     -14     1     6     6     0     0 -9.324945990E+00  6.761286237E+01 -2.552064920E+01  7.286808156E+01  9.536743164E-07  0.00000E+00  9.000E+00
       5     1     3     3   502     0  1.838182569E+01 -2.870515109E+01 -2.562598651E+01  4.290840127E+01  4.750000000E+00  0.00000E+00  9.000E+00
      -5     1     4     4     0   512 -7.313696959E+01 -4.680420405E+01 -2.141017255E+01  8.955784625E+01  4.750000000E+00  0.00000E+00  9.000E+00
      21     1     1     2   511   502 -1.161658641E+01  3.426538041E-01  3.844182688E+01  4.016013627E+01  0.000000000E+00  0.00000E+00  9.000E+00
</event>
<event>
     13  10001  1.00000E+00  3.22730E+01 -1.00000E+00  1.54467E-01
      -1    -1     0     0     0   512  0.000000000E+00  0.000000000E+00  7.966142777E+02  7.966142777E+02  0.000000000E+00  0.00000E+00  9.000E+00
       1    -1     0     0   513     0  0.000000000E+00  0.000000000E+00 -1.886767123E+02  1.886767123E+02  0.000000000E+00  0.00000E+00  9.000E+00
       6     2     1     2   502     0 -2.841610637E+02 -7.948879912E+01  4.543816955E+02  5.684300348E+02  1.720000000E+02  0.00000E+00  9.000E+00
      -6     2     1     2     0   512  2.537353299E+02  9.025090055E+01  1.871155401E+02  3.703013206E+02  1.720000000E+02  0.00000E+00  9.000E+00
      24     2     3     3     0     0 -9.176788523E+01 -7.248061477E+01  2.489324035E+02  2.868341828E+02  8.143538957E+01  0.00000E+00  9.000E+00
     -24     2     4     4     0     0  7.088458152E+01  4.233823404E+01  1.267875883E+02  1.718270299E+02  8.143884645E+01  0.00000E+00  9.000E+00
     -11     1     5     5     0     0 -5.790914529E+01  4.762881375E+00  9.754789407E+01  1.135418239E+02  1.348699152E-06  0.00000E+00  9.000E+00
      12     1     5     5     0     0 -3.385873994E+01 -7.724349615E+01  1.513845094E+02  1.732923589E+02  3.303624740E-06  0.00000E+00  9.000E+00
      13     1     6     6     0     0  1.367155701E+01 -8.273819918E+00  8.144200353E+01  8.299498483E+01  9.536743164E-07  0.00000E+00  9.000E+00
     -14     1     6     6     0     0  5.721302452E+01  5.061205396E+01  4.534558475E+01  8.883204510E+01  1.784161275E-06  0.00000E+00  9.000E+00
       5     1     3     3   502     0 -1.923931784E+02 -7.008184343E+00  2.054492920E+02  2.815958520E+02  4.750000000E+00  0.00000E+00  9.000E+00
      -5     1     4     4     0   512  1.828507483E+02  4.791266651E+01  6.032795184E+01  1.984742907E+02  4.750000000E+00  0.00000E+00  9.000E+00
      21     1     1     2   513   502  3.042573383E+01 -1.076210143E+01 -3.355967027E+01  4.655963461E+01  6.743495762E-07  0.00000E+00  9.000E+00
</event>
<event>
     13  10001  1.00000E+00  1.20475E+01 -1.00000E+00  1.92483E-01
      21    -1     0     0   503   504  0.000000000E+00  0.000000000E+00  6.925529895E+01  6.925529895E+01  0.000000000E+00  0.00000E+00  9.000E+00
      21    -1     0     0   502   511  0.000000000E+00  0.000000000E+00 -4.942630318E+02  4.942630318E+02  0.000000000E+00  0.00000E+00  9.000E+00
       6     2     1     2   502     0  3.399924421E+01 -2.195639747E+01 -2.419126735E+02  2.995726516E+02  1.720000000E+02  0.00000E+00  9.000E+00
      -6     2     1     2     0   504 -2.626227292E+01  3.119114349E+01 -1.626312339E+02  2.401989023E+02  1.720000000E+02  0.00000E+00  9.000E+00
      24     2     3     3     0     0  4.399662760E+01 -5.162811371E+01 -2.462075813E+02  2.676138163E+02  7.998635023E+01  0.00000E+00  9.000E+00
     -24     2     4     4     0     0 -5.000267986E+01 -2.266106519E+01 -4.434977910E+01  1.079993094E+02  8.175057223E+01  0.00000E+00  9.000E+00
     -11     1     5     5     0     0  1.116390101E+01 -1.900907985E+01 -2.033339572E+02  2.045254898E+02  0.000000000E+00  0.00000E+00  9.000E+00
      12     1     5     5     0     0  3.283272659E+01 -3.261903386E+01 -4.287362412E+01  6.308832658E+01  1.581489940E-06  0.00000E+00  9.000E+00
      13     1     6     6     0     0 -3.751056734E+01 -3.316376848E+01 -6.476523364E+01  8.186216275E+01  9.536743164E-07  0.00000E+00  9.000E+00
     -14     1     6     6     0     0 -1.249211251E+01  1.050270330E+01  2.041545454E+01  2.613714666E+01  7.152557373E-07  0.00000E+00  9.000E+00
       5     1     3     3   502     0 -9.997383394E+00  2.967171623E+01  4.294907835E+00  3.195883528E+01  4.750000000E+00  0.00000E+00  9.000E+00
      -5     1     4     4     0   504  2.374040694E+01  5.385220868E+01 -1.182814548E+02  1.321995928E+02  4.750000000E+00  0.00000E+00  9.000E+00
      21     1     1     2   503   511 -7.736971290E+00 -9.234746016E+00 -2.046382543E+01  2.374677683E+01  2.384185791E-07  0.00000E+00  9.000E+00
</event>
<event>
     13  10001  1.00000E+00  3.40295E+01 -1.00000E+00  1.52855E-01
       1    -1     0     0   502     0  0.000000000E+00  0.000000000E+00  2.075255682E+02  2.075255682E+02  0.000000000E+00  0.00000E+00  9.000E+00
      21    -1     0     0   503   504  0.000000000E+00  0.000000000E+00 -6.179827317E+02  6.179827317E+02  0.000000000E+00  0.00000E+00  9.000E+00
       6     2     1     2   502     0 -8.788431434E+01 -1.104179723E+02 -3.513363596E+02  4.158569693E+02  1.720000000E+02  0.00000E+00  9.000E+00
      -6     2     1     2     0   504  5.760772939E+01  1.259528850E+02 -1.794827635E+02  2.845713305E+02  1.720000000E+02  0.00000E+00  9.000E+00
      24     2     3     3     0     0 -5.374009395E+01 -1.898181280E+01 -7.722214237E+01  1.248456883E+02  7.984284380E+01  0.00000E+00  9.000E+00
     -24     2     4     4     0     0  8.072913335E+01  4.914010114E+01 -1.568955706E+02  2.010994977E+02  8.302316179E+01  0.00000E+00  9.000E+00
     -11     1     5     5     0     0 -1.735016538E+01 -4.601305695E+01 -5.679131691E+01  7.512312111E+01  6.743495762E-07  0.00000E+00  9.000E+00
      12     1     5     5     0     0 -3.638992857E+01  2.703124415E+01 -2.043082546E+01  4.972256722E+01  8.259061849E-07  0.00000E+00  9.000E+00
      13     1     6     6     0     0  1.205433915E+01 -5.083989352E+00 -9.002756425E+01  9.097316288E+01  0.000000000E+00  0.00000E+00  9.000E+00
     -14     1     6     6     0     0  6.867479420E+01  5.422409049E+01 -6.686800632E+01  1.101263348E+02  1.651812370E-06  0.00000E+00  9.000E+00
       5     1     3     3   502     0 -3.414422040E+01 -9.143615946E+01 -2.741142173E+02  2.910112810E+02  4.750000000E+00  0.00000E+00  9.000E+00
      -5     1     4     4     0   504 -2.312140396E+01  7.681278383E+01 -2.258719294E+01  8.347183277E+01  4.750000000E+00  0.00000E+00  9.000E+00
       1     1     1     2   503     0  3.027658495E+01 -1.553491271E+01  1.203619596E+02  1.250800002E+02  3.015782986E-06  0.00000E+00  9.000E+00
</event>
<event>
     13  10001  1.00000E+00  7.38783E+00 -1.00000E+00  2.19684E-01
       2    -1     0     0   502     0  0.000000000E+00  0.000000000E+00  1.290336891E+03  1.290336891E+03  0.000000000E+00  0.00000E+00  9.000E+00
      21    -1     0     0   503   504  0.000000000E+00  0.000000000E+00 -2.831246216E+02  2.831246216E+02  0.000000000E+00  0.00000E+00  9.000E+00
       6     2     1     2   502     0 -1.095416006E+01  4.867710470E+01  1.439612728E+02  2.297788115E+02  1.720000000E+02  0.00000E+00  9.000E+00
      -6     2     1     2     0   504  3.607659502E+00 -4.789672942E+01 -2.070112840E+02  2.733949224E+02  1.720000000E+02  0.00000E+00  9.000E+00
      24     2     3     3     0     0 -8.870866030E+00 -3.210506501E+01  1.147691870E+02  1.437274348E+02  7.985099726E+01  0.00000E+00  9.000E+00
     -24     2     4     4     0     0 -1.443888871E+01 -3.744809496E+01 -2.961134963E+01  9.471042091E+01  8.051329380E+01  0.00000E+00  9.000E+00
     -11     1     5     5     0     0  2.943481197E+00 -3.855120190E+01  1.258399220E+01  4.065976032E+01  1.168007728E-06  0.00000E+00  9.000E+00
      12     1     5     5     0     0 -1.181434723E+01  6.446136893E+00  1.021851949E+02  1.030676745E+02  2.697398305E-06  0.00000E+00  9.000E+00
      13     1     6     6     0     0  7.655833382E+00  1.228342124E+01  1.751549852E+01  2.272194777E+01  2.384185791E-07  0.00000E+00  9.000E+00
     -14     1     6     6     0     0 -2.209472209E+01 -4.973151620E+01 -4.712684815E+01  7.198847313E+01  2.132480600E-06  0.00000E+00  9.000E+00
       5     1     3     3   502     0 -2.083294032E+00  8.078216971E+01  2.919208579E+01  8.605137669E+01  4.750000000E+00  0.00000E+00  9.000E+00
      -5     1     4     4     0   504  1.804654821E+01 -1.044863445E+01 -1.773999343E+02  1.786845015E+02  4.750000000E+00  0.00000E+00  9.000E+00
       2     1     1     2   503     0  7.346500559E+00 -7.803752869E-01  1.070262280E+03  1.070287778E+03  1.525878906E-05  0.00000E+00  9.000E+00
</event>
<event>
     13  10001  1.00000E+00  2.82100E+01 -1.00000E+00  1.58721E-01
      21    -1     0     0   511   504  0.000000000E+00  0.000000000E+00  1.092136249E+03  1.092136249E+03  0.000000000E+00  0.00000E+00  9.000E+00
      21    -1     0     0   502   503  0.000000000E+00  0.000000000E+00 -1.584152651E+02  1.584152651E+02  0.000000000E+00  0.00000E+00  9.000E+00
       6     2     1     2   502     0  5.050385571E+00  3.919347425E+01 -8.522896864E+01  1.959837032E+02  1.720000000E+02  0.00000E+00  9.000E+00
      -6     2     1     2     0   504 -2.839536415E+01 -2.335621792E+01  4.251214523E+02  4.600696239E+02  1.720000000E+02  0.00000E+00  9.000E+00
      24     2     3     3     0     0  7.701555615E+00  6.247646546E+01  3.268110990E+00  1.043135227E+02  8.311442582E+01  0.00000E+00  9.000E+00
     -24     2     4     4     0     0 -7.509633140E+00 -6.529913796E+01  1.582565520E+02  1.890809529E+02  7.991306831E+01  0.00000E+00  9.000E+00
     -11     1     5     5     0     0  4.041947577E+01  4.943094403E+01 -1.356106796E+01  6.527675554E+01  1.348699152E-06  0.00000E+00  9.000E+00
      12     1     5     5     0     0 -3.271792015E+01  1.304552143E+01  1.682917895E+01  3.903676719E+01  7.539457465E-07  0.00000E+00  9.000E+00
      13     1     6     6     0     0 -4.235272194E+01 -4.092853787E+01  1.099135029E+02  1.246991435E+02  1.907348633E-06  0.00000E+00  9.000E+00
     -14     1     6     6     0     0  3.484308880E+01 -2.437060009E+01  4.834304918E+01  6.438180947E+01  6.743495762E-07  0.00000E+00  9.000E+00
       5     1     3     3   502     0 -2.651170044E+00 -2.328299121E+01 -8.849707963E+01  9.167018046E+01  4.750000000E+00  0.00000E+00  9.000E+00
      -5     1     4     4     0   504 -2.088573101E+01  4.194292004E+01  2.668649003E+02  2.709886710E+02  4.750000000E+00  0.00000E+00  9.000E+00
      21     1     1     2   511   503  2.334497857E+01 -1.583725633E+01  5.938285003E+02  5.944981871E+02  0.000000000E+00  0.00000E+00  9.000E+00
</event>
<event>
     13  10001  1.00000E+00  9.34772E+01 -1.00000E+00  1.27601E-01
       1    -1     0     0   503     0  0.000000000E+00  0.000000000E+00  1.100989871E+03  1.100989871E+03  0.000000000E+00  0.00000E+00  9.000E+00
      21    -1     0     0   502   503  0.000000000E+00  0.000000000E+00 -8.825735329E+01  8.825735329E+01  0.000000000E+00  0.00000E+00  9.000E+00
       6     2     1     2   502     0 -1.251902442E+02 -3.178712810E+01  2.029089858E+02  2.957009896E+02  1.720000000E+02  0.00000E+00  9.000E+00
      -6     2     1     2     0   504  3.778317408E+01 -1.348793914E+00  1.628719656E+02  2.398763529E+02  1.720000000E+02  0.00000E+00  9.000E+00
      24     2     3     3     0     0 -8.820573779E+01  4.064310944E+01  1.647314861E+02  2.057339011E+02  7.588057099E+01  0.00000E+00  9.000E+00
     -24     2     4     4     0     0  6.653607670E+01  3.661002934E+01  5.736595516E+01  1.240243679E+02  7.952262118E+01  0.00000E+00  9.000E+00
     -11     1     5     5     0     0 -6.969299917E+01  1.832357299E+01  5.079358455E+01  8.816380035E+01  1.784161275E-06  0.00000E+00  9.000E+00
      12     1     5     5     0     0 -1.851273862E+01  2.231953645E+01  1.139379015E+02  1.175701008E+02  1.907348633E-06  0.00000E+00  9.000E+00
      13     1     6     6     0     0  1.664043882E+01 -2.298286497E+01  1.704339781E+00  2.842571126E+01  1.115100797E-07  0.00000E+00  9.000E+00
     -14     1     6     6     0     0  4.989563788E+01  5.959289432E+01  5.566161538E+01  9.559865668E+01  0.000000000E+00  0.00000E+00  9.000E+00
       5     1     3     3   502     0 -3.698450636E+01 -7.243023754E+01  3.817749968E+01  8.996708844E+01  4.750000000E+00  0.00000E+00  9.000E+00
      -5     1     4     4     0   504 -2.875290262E+01 -3.795882326E+01  1.055060105E+02  1.158519850E+02  4.750000000E+00  0.00000E+00  9.000E+00
       1     1     1     2   504     0  8.740707007E+01  3.313592201E+01  6.469515661E+02  6.536698816E+02  7.629394531E-06  0.00000E+00  9.000E+00
</event>
<event>
     13  10001  1.00000E+00  4.12291E+01 -1.00000E+00  1.47296E-01
      21    -1     0     0   503   504  0.000000000E+00  0.000000000E+00  5.210728611E+02  5.210728611E+02  0.000000000E+00  0.00000E+00  9.000E+00
      21    -1     0     0   502   511  0.000000000E+00  0.000000000E+00 -8.421498796E+01  8.421498796E+01  0.000000000E+00  0.00000E+00  9.000E+00
       6     2     1     2   502     0  7.201116655E+01  1.392980483E+01  1.365775189E+02  2.315535926E+02  1.720000000E+02  0.00000E+00  9.000E+00
      -6     2     1     2     0   504 -3.468496921E+01 -3.143964173E+01  2.655226186E+02  3.198089416E+02  1.720000000E+02  0.00000E+00  9.000E+00
      24     2     3     3     0     0  8.433243998E+01 -3.372227699E+01  1.364109740E+02  1.821053882E+02  7.940570630E+01  0.00000E+00  9.000E+00
     -24     2     4     4     0     0 -7.769391758E+01 -5.842007554E+01  1.728923311E+02  2.140703673E+02  8.053020510E+01  0.00000E+00  9.000E+00
     -11     1     5     5     0     0  7.639844473E+01 -5.735604139E+01  1.040373692E+02  1.412452195E+02  2.336015456E-06  0.00000E+00  9.000E+00
      12     1     5     5     0     0  7.933995255E+00  2.363376440E+01  3.237360478E+01  4.086016871E+01  8.259061849E-07  0.00000E+00  9.000E+00
      13     1     6     6     0     0 -8.598858587E+01 -4.626358766E+01  1.737729205E+02  1.993273297E+02  4.264961200E-06  0.00000E+00  9.000E+00
     -14     1     6     6     0     0  8.294668294E+00 -1.215648788E+01 -8.805894345E-01  1.474303759E+01  4.082211116E-07  0.00000E+00  9.000E+00
       5     1     3     3   502     0 -1.232127343E+01  4.765208182E+01  1.665449554E-01  4.944820440E+01  4.750000000E+00  0.00000E+00  9.000E+00
      -5     1     4     4     0   504  4.300894837E+01  2.698043381E+01  9.263028747E+01  1.057385743E+02  4.750000000E+00  0.00000E+00  9.000E+00
      21     1     1     2   503   511 -3.732619734E+01  1.750983690E+01  3.475773565E+01  5.392531487E+01  4.768371582E-07  0.00000E+00  9.000E+00
</event>
<event>
     13  10001  1.00000E+00  1.19855E+02 -1.00000E+00  1.22644E-01
      21    -1     0     0   502   513  0.000000000E+00  0.000000000E+00  5.955326866E+02  5.955326866E+02  0.000000000E+00  0.00000E+00  9.000E+00
      -3    -1     0     0     0   512  0.000000000E+00  0.000000000E+00 -1.952610308E+02  1.952610308E+02  0.000000000E+00  0.00000E+00  9.000E+00
       6     2     1     2   502     0 -4.211263795E+01 -1.288575428E+02  4.014805290E+02  4.573274054E+02  1.720000000E+02  0.00000E+00  9.000E+00
      -6     2     1     2     0   512 -7.383647773E+01  9.850841853E+01  1.715598070E+01  2.122123032E+02  1.720000000E+02  0.00000E+00  9.000E+00
      24     2     3     3     0     0 -7.692906682E+01 -1.361023174E+02  3.693283300E+02  4.091506800E+02  8.098729203E+01  0.00000E+00  9.000E+00
     -24     2     4     4     0     0 -1.082400601E+02  4.216838006E+01 -8.951467739E+00  1.410647960E+02  7.953027731E+01  0.00000E+00  9.000E+00
     -11     1     5     5     0     0 -4.415922869E+01 -4.343928473E+01  2.329530155E+02  2.410479545E+02  0.000000000E+00  0.00000E+00  9.000E+00
      12     1     5     5     0     0 -3.276983813E+01 -9.266303265E+01  1.363753145E+02  1.681027255E+02  0.000000000E+00  0.00000E+00  9.000E+00
      13     1     6     6     0     0 -9.208251492E+01  5.119768230E+01  1.947522023E+01  1.071432519E+02  1.951540177E-06  0.00000E+00  9.000E+00
     -14     1     6     6     0     0 -1.615754521E+01 -9.029302243E+00 -2.842668796E+01  3.392154411E+01  1.168007728E-06  0.00000E+00  9.000E+00
       5     1     3     3   502     0  3.481642887E+01  7.244774535E+00  3.215219898E+01  4.817672547E+01  4.750000000E+00  0.00000E+00  9.000E+00
      -5     1     4     4     0   512  3.440358240E+01  5.634003847E+01  2.610744844E+01  7.114750720E+01  4.750000000E+00  0.00000E+00  9.000E+00
      -3     1     1     2     0   513  1.159491157E+02  3.034912431E+01 -1.836485390E+01  1.212540087E+02  1.327458468E-06  0.00000E+00  9.000E+00
</event>
<event>
     13  10001  1.00000E+00  7.70407E+00 -1.00000E+00  2.17041E-01
      21    -1     0     0   502   511  0.000000000E+00  0.000000000E+00  5.942102401E+02  5.942102401E+02  0.000000000E+00  0.00000E+00  9.000E+00
      21    -1     0     0   503   504  0.000000000E+00  0.000000000E+00 -1.153859826E+02  1.153859826E+02  0.000000000E+00  0.00000E+00  9.000E+00
       6     2     1     2   502     0  1.246899337E+02 -2.081541540E+01  4.385722231E+01  2.179181430E+02  1.720000000E+02  0.00000E+00  9.000E+00
      -6     2     1     2     0   504 -1.249721418E+02  1.311651681E+01  3.754741639E+02  4.316884606E+02  1.720000000E+02  0.00000E+00  9.000E+00
      24     2     3     3     0     0  1.204787032E+02 -6.634915546E+01  5.347688969E+00  1.579464613E+02  7.746714465E+01  0.00000E+00  9.000E+00
     -24     2     4     4     0     0 -4.369256535E+01 -5.419325699E+01  1.660709552E+02  1.971479704E+02  8.026089159E+01  0.00000E+00  9.000E+00
     -11     1     5     5     0     0  6.058488504E+01 -7.539822601E+01 -3.179396365E+00  9.677566503E+01  1.863539004E-06  0.00000E+00  9.000E+00
      12     1     5     5     0     0  5.989381813E+01  9.049070546E+00  8.527085333E+00  6.117079624E+01  2.064765462E-07  0.00000E+00  9.000E+00
      13     1     6     6     0     0  2.101738570E+01 -1.255912236E+01  1.838221883E+01  3.061646657E+01  4.129530925E-07  0.00000E+00  9.000E+00
     -14     1     6     6     0     0 -6.470995105E+01 -4.163413463E+01  1.476887363E+02  1.665315038E+02  0.000000000E+00  0.00000E+00  9.000E+00
       5     1     3     3   502     0  4.211230512E+00  4.553374006E+01  3.850953334E+01  5.997168169E+01  4.750000000E+00  0.00000E+00  9.000E+00
      -5     1     4     4     0   504 -8.127957649E+01  6.730977380E+01  2.094032087E+02  2.345404902E+02  4.750000000E+00  0.00000E+00  9.000E+00
      21     1     1     2   503   511  2.822081621E-01  7.698898591E+00  5.949287124E+01  5.998961918E+01  6.743495762E-07  0.00000E+00  9.000E+00
</event>
<event>
     13  10001  1.00000E+00  7.54087E+00 -1.00000E+00  2.18383E-01
      -1    -1     0     0     0   512  0.000000000E+00  0.000000000E+00  3.894262846E+02  3.894262846E+02  0.000000000E+00  0.00000E+00  9.000E+00
       1    -1     0     0   513     0  0.000000000E+00  0.000000000E+00 -4.441110268E+02  4.441110268E+02  0.000000000E+00  0.00000E+00  9.000E+00
       6     2     1     2   502     0  1.896049320E+02 -1.403170506E+02 -2.752632193E+02  4.012390121E+02  1.720000000E+02  0.00000E+00  9.000E+00
      -6     2     1     2     0   512 -1.869072631E+02  1.332752242E+02  2.630279937E+02  3.891841927E+02  1.720000000E+02  0.00000E+00  9.000E+00
      24     2     3     3     0     0  1.314055038E+02 -1.663286794E+02 -2.202837381E+02  3.169236272E+02  8.356449105E+01  0.00000E+00  9.000E+00
     -24     2     4     4     0     0 -1.145402126E+02  1.552173489E+02  1.948230072E+02  2.872384742E+02  8.566242597E+01  0.00000E+00  9.000E+00
     -11     1     5     5     0     0  9.372365425E+01 -6.294875055E+01 -7.876308778E+01  1.376600616E+02  9.536743164E-07  0.00000E+00  9.000E+00
      12     1     5     5     0     0  3.768184957E+01 -1.033799289E+02 -1.415206503E+02  1.792635656E+02  1.907348633E-06  0.00000E+00  9.000E+00
      13     1     6     6     0     0 -8.677571565E+01  7.744995956E+01  6.461680404E+01  1.330558245E+02  1.907348633E-06  0.00000E+00  9.000E+00
     -14     1     6     6     0     0 -2.776449694E+01  7.776738935E+01  1.302062031E+02  1.541826497E+02  2.697398305E-06  0.00000E+00  9.000E+00
       5     1     3     3   502     0  5.819942817E+01  2.601162887E+01 -5.497948121E+01  8.431538490E+01  4.750000000E+00  0.00000E+00  9.000E+00
      -5     1     4     4     0   512 -7.236705052E+01 -2.194212473E+01  6.820498650E+01  1.019457185E+02  4.750000000E+00  0.00000E+00  9.000E+00
      21     1     1     2   513   502 -2.697668885E+00  7.041826377E+00 -4.244951658E+01  4.311410667E+01  8.259061849E-07  0.00000E+00  9.000E+00
</event>
<event>
     13  10001  1.00000E+00  1.00322E+02 -1.00000E+00  1.26151E-01
      21    -1     0     0   511   512  0.000000000E+00  0.000000000E+00  1.020699008E+02  1.020699008E+02  0.000000000E+00  0.00000E+00  9.000E+00
       2    -1     0     0   502     0  0.000000000E+00  0.000000000E+00 -1.223177435E+03  1.223177435E+03  0.000000000E+00  0.00000E+00  9.000E+00
       6     2     1     2   502     0 -3.835856008E+01  5.494831211E+01 -1.698780045E+02  2.508649687E+02  1.720000000E+02  0.00000E+00  9.000E+00
      -6     2     1     2     0   512  6.639162154E+01  4.137732133E+01 -9.353054920E+01  2.108361776E+02  1.720000000E+02  0.00000E+00  9.000E+00
      24     2     3     3     0     0 -2.710574543E+01  4.169922004E+01 -1.964351011E+02  2.187712597E+02  8.246556082E+01  0.00000E+00  9.000E+00
     -24     2     4     4     0     0  8.468380470E+00  5.390402498E+01  1.113276694E+00  9.906839847E+01  8.267980899E+01  0.00000E+00  9.000E+00
     -11     1     5     5     0     0 -4.032653054E+01  4.561631270E+01 -7.521619645E+01  9.677062187E+01  9.536743164E-07  0.00000E+00  9.000E+00
      12     1     5     5     0     0  1.322078511E+01 -3.917092658E+00 -1.212189047E+02  1.220006378E+02  1.348699152E-06  0.00000E+00  9.000E+00
      13     1     6     6     0     0  2.781157899E+01  6.651667932E+01 -1.109881293E+01  7.294611849E+01  2.920019320E-07  0.00000E+00  9.000E+00
     -14     1     6     6     0     0 -1.934319852E+01 -1.261265434E+01  1.221208962E+01  2.612227998E+01  2.920019320E-07  0.00000E+00  9.000E+00
       5     1     3     3   502     0 -1.125281465E+01  1.324909207E+01  2.655709665E+01  3.209370905E+01  4.750000000E+00  0.00000E+00  9.000E+00
      -5     1     4     4     0   512  5.792324107E+01 -1.252670365E+01 -9.464382590E+01  1.117677791E+02  4.750000000E+00  0.00000E+00  9.000E+00
       2     1     1     2   511     0 -2.803306146E+01 -9.632563344E+01 -8.576989804E+02  8.635461894E+02  1.078959322E-05  0.00000E+00  9.000E+00
</event>
<event>
     13  10001  1.00000E+00  1.39179E+01 -1.00000E+00  1.85742E-01
      21    -1     0     0   502   503  0.000000000E+00  0.000000000E+00  1.009541660E+03  1.009541660E+03  0.000000000E+00  0.00000E+00  9.000E+00
      21    -1     0     0   512   504  0.000000000E+00  0.000000000E+00 -4.743683946E+01  4.743683946E+01  0.000000000E+00  0.00000E+00  9.000E+00
       6     2     1     2   502     0 -2.882738076E+01 -5.365627258E+01  6.479032428E+02  6.731066970E+02  1.720000000E+02  0.00000E+00  9.000E+00
      -6     2     1     2     0   504  1.712319861E+01  4.612495943E+01  3.216741730E+02  3.680747063E+02  1.720000000E+02  0.00000E+00  9.000E+00
      24     2     3     3     0     0 -7.392798822E+01 -4.293362605E+01  3.019594302E+02  3.240383313E+02  8.070129472E+01  0.00000E+00  9.000E+00
     -24     2     4     4     0     0 -1.541017132E+01  7.369599004E+01  1.267574344E+02  1.684909409E+02  8.156701340E+01  0.00000E+00  9.000E+00
     -11     1     5     5     0     0 -4.075377332E+01 -3.048219888E+00  2.389515557E+02  2.424211370E+02  3.814697266E-06  0.00000E+00  9.000E+00
      12     1     5     5     0     0 -3.317421490E+01 -3.988540616E+01  6.300787456E+01  8.161719436E+01  1.651812370E-06  0.00000E+00  9.000E+00
      13     1     6     6     0     0 -4.751967734E+01  5.870131554E+01  8.838436183E+01  1.162572991E+02  9.536743164E-07  0.00000E+00  9.000E+00
     -14     1     6     6     0     0  3.210950602E+01  1.499467450E+01  3.837307252E+01  5.223364179E+01  8.259061849E-07  0.00000E+00  9.000E+00
       5     1     3     3   502     0  4.510060746E+01 -1.072264653E+01  3.459438126E+02  3.490683657E+02  4.750000000E+00  0.00000E+00  9.000E+00
      -5     1     4     4     0   504  3.253336993E+01 -2.757103061E+01  1.949167387E+02  1.995837654E+02  4.750000000E+00  0.00000E+00  9.000E+00
      21     1     1     2   512   503  1.170418215E+01  7.531313158E+00 -7.472595521E+00  1.579709598E+01  7.862392639E-07  0.00000E+00  9.000E+00
</event>
<event>
     13  10001  1.00000E+00  6.18504E+01 -1.00000E+00  1.36814E-01
      21    -1     0     0   502   511  0.000000000E+00  0.000000000E+00  2.358794882E+02  2.358794882E+02  0.000000000E+00  0.00000E+00  9.000E+00
      21    -1     0     0   503   504  0.000000000E+00  0.000000000E+00 -5.770545300E+02  5.770545300E+02  0.000000000E+00  0.00000E+00  9.000E+00
       6     2     1     2   502     0  5.108240480E+01  2.715410208E+02 -1.223623510E+01  3.256956609E+02  1.720000000E+02  0.00000E+00  9.000E+00
      -6     2     1     2     0   504 -3.100747470E+01 -2.130392001E+02 -3.237932222E+02  4.251743348E+02  1.720000000E+02  0.00000E+00  9.000E+00
      24     2     3     3     0     0  1.534984865E+01  9.085169978E+01  4.829516546E+01  1.317573736E+02  8.085748756E+01  0.00000E+00  9.000E+00
     -24     2     4     4     0     0  4.427406882E+01 -1.478284921E+02 -1.853581033E+02  2.545677937E+02  8.144739955E+01  0.00000E+00  9.000E+00
     -11     1     5     5     0     0 -3.177392661E+01  3.395074372E+01  6.722609103E+00  4.698328304E+01  4.042583694E-07  0.00000E+00  9.000E+00
      12     1     5     5     0     0  4.712377526E+01  5.690095606E+01  4.157255636E+01  8.477409060E+01  2.078484985E-06  0.00000E+00  9.000E+00
      13     1     6     6     0     0 -6.190673613E+00 -2.681859722E+01 -8.532245371E+01  8.965200892E+01  2.132480600E-06  0.00000E+00  9.000E+00
     -14     1     6     6     0     0  5.046474244E+01 -1.210098949E+02 -1.000356496E+02  1.649157848E+02  3.303624740E-06  0.00000E+00  9.000E+00
       5     1     3     3   502     0  3.573255615E+01  1.806893210E+02 -6.053140056E+01  1.939382872E+02  4.750000000E+00  0.00000E+00  9.000E+00
      -5     1     4     4     0   504 -7.528154352E+01 -6.521070804E+01 -1.384351189E+02  1.706065411E+02  4.750000000E+00  0.00000E+00  9.000E+00
      21     1     1     2   503   511 -2.007493010E+01 -5.850182070E+01 -5.145584573E+00  6.206402246E+01  5.527507362E-07  0.00000E+00  9.000E+00
</event>
<event>
     13  10001  1.00000E+00  5.00806E+01 -1.00000E+00  1.42071E-01
      21    -1     0     0   503   504  0.000000000E+00  0.000000000E+00  9.857811619E+01  9.857811619E+01  0.000000000E+00  0.00000E+00  9.000E+00
       2    -1     0     0   502     0  0.000000000E+00  0.000000000E+00 -1.151898917E+03  1.151898917E+03  0.000000000E+00  0.00000E+00  9.000E+00
       6     2     1     2   502     0  5.027786759E+01  2.037460414E+01 -1.898291652E+01  1.813486685E+02  1.720000000E+02  0.00000E+00  9.000E+00
      -6     2     1     2     0   504 -9.203287353E+01  7.276468614E+00 -9.589812495E+02  9.786480642E+02  1.720000000E+02  0.00000E+00  9.000E+00
      24     2     3     3     0     0  8.879745401E+01  1.972729484E+01  2.392565984E+01  1.234877493E+02  8.001645479E+01  0.00000E+00  9.000E+00
     -24     2     4     4     0     0 -1.180082093E+02 -1.532819382E+01 -8.921618644E+02  9.033282026E+02  7.673433648E+01  0.00000E+00  9.000E+00
     -11     1     5     5     0     0  2.237546318E+01  4.241023600E+01 -3.620890260E+00  4.808742368E+01  2.129980133E-06  0.00000E+00  9.000E+00
      12     1     5     5     0     0  6.642199083E+01 -2.268294117E+01  2.754655010E+01  7.540032565E+01  3.180900589E-06  0.00000E+00  9.000E+00
      13     1     6     6     0     0  2.281623620E+00 -2.517950598E+00 -2.410631649E+02  2.410871116E+02  4.672030912E-06  0.00000E+00  9.000E+00
     -14     1     6     6     0     0 -1.202898329E+02 -1.281024323E+01 -6.510986995E+02  6.622410910E+02  7.629394531E-06  0.00000E+00  9.000E+00
       5     1     3     3   502     0 -3.851958641E+01  6.473093034E-01 -4.290857636E+01  5.786091921E+01  4.750000000E+00  0.00000E+00  9.000E+00
      -5     1     4     4     0   504  2.597533576E+01  2.260466244E+01 -6.681938509E+01  7.531986163E+01  4.750000000E+00  0.00000E+00  9.000E+00
       2     1     1     2   503     0  4.175500594E+01 -2.765107276E+01 -7.535663472E+01  9.048030030E+01  1.907348633E-06  0.00000E+00  9.000E+00
</event>
<event>
     13  10001  1.00000E+00  1.91293E+01 -1.00000E+00  1.72484E-01
      21    -1     0     0   502   503  0.000000000E+00  0.000000000E+00  1.364258954E+02  1.364258954E+02  0.000000000E+00  0.00000E+00  9.000E+00
      21    -1     0     0   511   504  0.000000000E+00  0.000000000E+00 -4.278647316E+02  4.278647316E+02  0.000000000E+00  0.00000E+00  9.000E+00
       6     2     1     2   502     0  2.744299788E+01  5.202994918E+01  3.273615777E+01  1.847048721E+02  1.720000000E+02  0.00000E+00  9.000E+00
      -6     2     1     2     0   504 -1.549395309E+01 -3.709166915E+01 -3.052811241E+02  3.526987656E+02  1.720000000E+02  0.00000E+00  9.000E+00
      24     2     3     3     0     0  7.235995380E+01 -6.394649597E+00  1.893577237E+01  1.095784466E+02  7.982492106E+01  0.00000E+00  9.000E+00
     -24     2     4     4     0     0  4.826974965E+01 -4.723637308E+01 -1.370371856E+02  1.724286623E+02  7.994504149E+01  0.00000E+00  9.000E+00
     -11     1     5     5     0     0  4.934397914E+01  5.428529237E+00 -2.725684145E+01  5.663243428E+01  1.390207266E-06  0.00000E+00  9.000E+00
      12     1     5     5     0     0  2.301597466E+01 -1.182317883E+01  4.619261381E+01  5.294601230E+01  1.784161275E-06  0.00000E+00  9.000E+00
      13     1     6     6     0     0  4.333490654E+01 -6.634887615E-01 -1.102795007E+02  1.184901794E+02  0.000000000E+00  0.00000E+00  9.000E+00
     -14     1     6     6     0     0  4.934843105E+00 -4.657288432E+01 -2.675768489E+01  5.393848284E+01  1.168007728E-06  0.00000E+00  9.000E+00
       5     1     3     3   502     0 -4.491695592E+01  5.842459878E+01  1.380038540E+01  7.512642550E+01  4.750000000E+00  0.00000E+00  9.000E+00
      -5     1     4     4     0   504 -6.376370274E+01  1.014470393E+01 -1.682439385E+02  1.802701033E+02  4.750000000E+00  0.00000E+00  9.000E+00
      21     1     1     2   511   503 -1.194904478E+01 -1.493828003E+01 -1.889386979E+01  2.688698936E+01  4.129530925E-07  0.00000E+00  9.000E+00
</event>
<event>
     13  10001  1.00000E+00  2.09931E+01 -1.00000E+00  1.68970E-01
      21    -1     0     0   502   503  0.000000000E+00  0.000000000E+00  3.150680693E+02  3.150680693E+02  0.000000000E+00  0.00000E+00  9.000E+00
      21    -1     0     0   503   512  0.000000000E+00  0.000000000E+00 -2.418532569E+02  2.418532569E+02  0.000000000E+00  0.00000E+00  9.000E+00
       6     2     1     2   502     0  1.260473910E+02 -3.463608953E+01  2.025935662E+02  2.961684598E+02  1.720000000E+02  0.00000E+00  9.000E+00
      -6     2     1     2     0   504 -1.051688130E+02  3.682567634E+01 -1.123118835E+02  2.336976012E+02  1.720000000E+02  0.00000E+00  9.000E+00
      24     2     3     3     0     0  1.076415346E+02 -7.770352743E+01  1.941707881E+02  2.483449775E+02  7.967681467E+01  0.00000E+00  9.000E+00
     -24     2     4     4     0     0 -6.385475493E+00 -2.067752885E+01 -1.719516811E+01  8.492086109E+01  8.029660233E+01  0.00000E+00  9.000E+00
     -11     1     5     5     0     0  3.755860298E+01 -6.463452919E+01  1.403580228E+02  1.590240409E+02  1.907348633E-06  0.00000E+00  9.000E+00
      12     1     5     5     0     0  7.008293159E+01 -1.306899824E+01  5.381276522E+01  8.932093660E+01  1.651812370E-06  0.00000E+00  9.000E+00
      13     1     6     6     0     0  7.844367124E+00  2.579820985E+01 -2.367814247E+01  3.588504086E+01  0.000000000E+00  0.00000E+00  9.000E+00
     -14     1     6     6     0     0 -1.422984262E+01 -4.647573870E+01  6.482974359E+00  4.903582023E+01  1.554298974E-06  0.00000E+00  9.000E+00
       5     1     3     3   502     0  1.840585643E+01  4.306743790E+01  8.422778164E+00  4.782348221E+01  4.750000000E+00  0.00000E+00  9.000E+00
      -5     1     4     4     0   504 -9.878333749E+01  5.750320519E+01 -9.511671535E+01  1.487767402E+02  4.750000000E+00  0.00000E+00  9.000E+00
      21     1     1     2   504   512 -2.087857802E+01 -2.189586810E+00 -1.706687034E+01  2.705526518E+01  3.371747881E-07  0.00000E+00  9.000E+00
</event>
<event>
     13  10001  1.00000E+00  2.27638E+01 -1.00000E+00  1.66028E-01
      21    -1     0     0   503   504  0.000000000E+00  0.000000000E+00  1.173424021E+02  1.173424021E+02  0.000000000E+00  0.00000E+00  9.000E+00
      21    -1     0     0   511   503  0.000000000E+00  0.000000000E+00 -4.325315462E+02  4.325315462E+02  0.000000000E+00  0.00000E+00  9.000E+00
       6     2     1     2   502     0  6.751026453E+01 -4.480132739E+01 -8.949239694E+01  2.101372976E+02  1.720000000E+02  0.00000E+00  9.000E+00
      -6     2     1     2     0   504 -8.415559993E+01  2.927317662E+01 -1.119443560E+02  2.237289045E+02  1.720000000E+02  0.00000E+00  9.000E+00
      24     2     3     3     0     0  7.343279767E+01 -7.684338777E+01 -2.204106501E+01  1.350772236E+02  8.039132899E+01  0.00000E+00  9.000E+00
     -24     2     4     4     0     0  1.579608085E+01  4.302969333E+01 -6.117887414E+01  1.106834407E+02  8.004310539E+01  0.00000E+00  9.000E+00
     -11     1     5     5     0     0  1.309911976E+01  1.583549072E+01 -1.255774563E+01  2.408415828E+01  6.078504936E-07  0.00000E+00  9.000E+00
      12     1     5     5     0     0  6.033367791E+01 -9.267887849E+01 -9.483319377E+00  1.109930653E+02  1.788139343E-06  0.00000E+00  9.000E+00
      13     1     6     6     0     0  1.534556231E+01  5.849156313E+01 -7.029695034E+01  9.272761437E+01  1.907348633E-06  0.00000E+00  9.000E+00
     -14     1     6     6     0     0  4.505185401E-01 -1.546186980E+01  9.118076203E+00  1.795582630E+01  6.743495762E-07  0.00000E+00  9.000E+00
       5     1     3     3   502     0 -5.922533143E+00  3.204206039E+01 -6.745133193E+01  7.506007402E+01  4.750000000E+00  0.00000E+00  9.000E+00
      -5     1     4     4     0   504 -9.995168078E+01 -1.375651671E+01 -5.076548183E+01  1.130454638E+02  4.750000000E+00  0.00000E+00  9.000E+00
      21     1     1     2   511   502  1.664533541E+01  1.552815077E+01 -1.137523913E+02  1.160077462E+02  1.348699152E-06  0.00000E+00  9.000E+00
</event>
<event>
     13  10001  1.00000E+00  2.98098E+01 -1.00000E+00  1.56948E-01
      21    -1     0     0   503   504  0.000000000E+00  0.000000000E+00  1.108334556E+02  1.108334556E+02  0.000000000E+00  0.00000E+00  9.000E+00
      21    -1     0     0   512   503  0.000000000E+00  0.000000000E+00 -7.839767147E+02  7.839767147E+02  0.000000000E+00  0.00000E+00  9.000E+00
       6     2     1     2   502     0 -6.061788497E+01  6.663985530E+01 -1.647553124E+02  2.546442837E+02  1.720000000E+02  0.00000E+00  9.000E+00
      -6     2     1     2     0   504  3.823067369E+01 -4.695650107E+01 -6.172744792E+01  1.925117535E+02  1.720000000E+02  0.00000E+00  9.000E+00
      24     2     3     3     0     0 -1.016366700E+02  1.949691606E+01 -1.107658088E+02  1.719253231E+02  8.111171253E+01  0.00000E+00  9.000E+00
     -24     2     4     4     0     0  1.647537500E+01 -1.875046629E+01 -1.060652258E+02  1.354392166E+02  8.044209897E+01  0.00000E+00  9.000E+00
     -11     1     5     5     0     0 -7.462203260E+01 -8.078758078E+00 -2.713054267E+01  7.981090419E+01  3.015782986E-06  0.00000E+00  9.000E+00
      12     1     5     5     0     0 -2.701463742E+01  2.757567414E+01 -8.363526612E+01  9.211441895E+01  1.348699152E-06  0.00000E+00  9.000E+00
      13     1     6     6     0     0 -2.720134047E+01 -1.980734744E+01 -2.059831686E+01  3.945294150E+01  4.129530925E-07  0.00000E+00  9.000E+00
     -14     1     6     6     0     0  4.367671547E+01  1.056881146E+00 -8.546690897E+01  9.598627507E+01  1.348699152E-06  0.00000E+00  9.000E+00
       5     1     3     3   502     0  4.101878506E+01  4.714293924E+01 -5.398950357E+01  8.271896061E+01  4.750000000E+00  0.00000E+00  9.000E+00
      -5     1     4     4     0   504  2.175529868E+01 -2.820603477E+01  4.433777792E+01  5.707253691E+01  4.750000000E+00  0.00000E+00  9.000E+00
      21     1     1     2   512   502  2.238721128E+01 -1.968335424E+01 -4.466604988E+02  4.476541331E+02  5.394796609E-06  0.00000E+00  9.000E+00
</event>
<event>
     13  10001  1.00000E+00  2.38788E+01 -1.00000E+00  1.64339E-01
       2    -1     0     0   511     0  0.000000000E+00  0.000000000E+00  9.190726303E+02  9.190726303E+02  0.000000000E+00  0.00000E+00  9.000E+00
      -2    -1     0     0     0   512  0.000000000E+00  0.000000000E+00 -7.189787908E+01  7.189787908E+01  0.000000000E+00  0.00000E+00  9.000E+00
       6     2     1     2   502     0 -1.433214864E+02 -1.576414935E+01  4.566314779E+02  5.088082777E+02  1.720000000E+02  0.00000E+00  9.000E+00
      -6     2     1     2     0   512  1.209029474E+02  7.541732422E+00  2.004770231E+02  2.906018534E+02  1.720000000E+02  0.00000E+00  9.000E+00
      24     2     3     3     0     0 -7.022902762E+01  5.132823115E+01  1.666008268E+02  2.022397925E+02  7.468865074E+01  0.00000E+00  9.000E+00
     -24     2     4     4     0     0  6.262140325E+00  1.293368907E+01  1.390182308E+02  1.603277827E+02  7.856484391E+01  0.00000E+00  9.000E+00
     -11     1     5     5     0     0 -6.190663161E+01  4.711427517E+01  1.738258752E+02  1.904405966E+02  0.000000000E+00  0.00000E+00  9.000E+00
      12     1     5     5     0     0 -8.322396010E+00  4.213955979E+00 -7.225048349E+00  1.179919590E+01  4.539354507E-07  0.00000E+00  9.000E+00
      13     1     6     6     0     0  1.187818170E+01 -2.573108577E+01  1.042294439E+02  1.080136888E+02  0.000000000E+00  0.00000E+00  9.000E+00
     -14     1     6     6     0     0 -5.616041379E+00  3.866477484E+01  3.478878686E+01  5.231409395E+01  4.768371582E-07  0.00000E+00  9.000E+00
       5     1     3     3   502     0 -7.309245882E+01 -6.709238050E+01  2.900306511E+02  3.065684852E+02  4.750000000E+00  0.00000E+00  9.000E+00
      -5     1     4     4     0   512  1.146408071E+02 -5.391956645E+00  6.145879230E+01  1.302740707E+02  4.750000000E+00  0.00000E+00  9.000E+00
      21     1     1     2   511   502  2.241853900E+01  8.222416931E+00  1.900662503E+02  1.915603783E+02  0.000000000E+00  0.00000E+00  9.000E+00
</event>
<event>
     13  10001  1.00000E+00  1.54422E+01 -1.00000E+00  1.81183E-01
       2    -1     0     0   502     0  0.000000000E+00  0.000000000E+00  7.346634222E+02  7.346634222E+02  0.000000000E+00  0.00000E+00  9.000E+00
      21    -1     0     0   503   504  0.000000000E+00  0.000000000E+00 -2.499714813E+02  2.499714813E+02  0.000000000E+00  0.00000E+00  9.000E+00
       6     2     1     2   502     0  3.776534709E+01 -1.945558521E+02 -4.587538613E+01  2.663958560E+02  1.720000000E+02  0.00000E+00  9.000E+00
      -6     2     1     2     0   504 -3.783645288E+01  1.791138520E+02  7.463505353E+01  2.620453403E+02  1.720000000E+02  0.00000E+00  9.000E+00
      24     2     3     3     0     0  8.408956832E+01 -1.747781832E+02 -2.369854612E+01  2.111557945E+02  8.004173689E+01  0.00000E+00  9.000E+00
     -24     2     4     4     0     0  3.951639305E+01  5.565471223E+01  4.088875780E+01  1.124224913E+02  7.942250133E+01  0.00000E+00  9.000E+00
     -11     1     5     5     0     0  5.549628746E+01 -1.328551161E+02  1.849099007E+01  1.451627932E+02  2.132480600E-06  0.00000E+00  9.000E+00
      12     1     5     5     0     0  2.859328086E+01 -4.192306704E+01 -4.218953619E+01  6.599300133E+01  1.907348633E-06  0.00000E+00  9.000E+00
      13     1     6     6     0     0  3.370868159E+01  3.314210030E+01 -1.684438312E+01  5.018373511E+01  1.011524364E-06  0.00000E+00  9.000E+00
     -14     1     6     6     0     0  5.807711455E+00  2.251261193E+01  5.773314092E+01  6.223875617E+01  6.743495762E-07  0.00000E+00  9.000E+00
       5     1     3     3   502     0 -4.632422123E+01 -1.977766894E+01 -2.217684001E+01  5.524006150E+01  4.750000000E+00  0.00000E+00  9.000E+00
      -5     1     4     4     0   504 -7.735284593E+01  1.234591398E+02  3.374629573E+01  1.496228490E+02  4.750000000E+00  0.00000E+00  9.000E+00
       2     1     1     2   503     0  7.110579681E-02  1.544200011E+01  4.559322735E+02  4.561937072E+02  7.629394531E-06  0.00000E+00  9.000E+00
</event>
<event>
     13  10001  1.00000E+00  8.38297E+00 -1.00000E+00  2.11912E-01
       1    -1     0     0   511     0  0.000000000E+00  0.000000000E+00  1.404783021E+03  1.404783021E+03  0.000000000E+00  0.00000E+00  9.000E+00
      -1    -1     0     0     0   512  0.000000000E+00  0.000000000E+00 -1.235431889E+02  1.235431889E+02  0.000000000E+00  0.00000E+00  9.000E+00
       6     2     1     2   502     0 -9.552234961E+01 -1.158297784E+02  1.383110857E+01  2.287276905E+02  1.720000000E+02  0.00000E+00  9.000E+00
      -6     2     1     2     0   512  9.977525023E+01  1.230538387E+02  8.354557765E+02  8.675642352E+02  1.720000000E+02  0.00000E+00  9.000E+00
      24     2     3     3     0     0 -1.312722962E+02 -7.141280059E+01  1.782828585E+01  1.713738195E+02  8.196910621E+01  0.00000E+00  9.000E+00
     -24     2     4     4     0     0 -2.823219595E+00  9.894822628E+01  4.826595920E+02  4.993316500E+02  8.107461286E+01  0.00000E+00  9.000E+00
     -11     1     5     5     0     0 -4.021908670E+01  3.235609231E+00  3.369495874E+01  5.256799736E+01  1.507891493E-06  0.00000E+00  9.000E+00
      12     1     5     5     0     0 -9.105320952E+01 -7.464840983E+01 -1.586667290E+01  1.188058221E+02  3.475518164E-06  0.00000E+00  9.000E+00
      13     1     6     6     0     0 -2.089287895E+01  7.479447829E+01  4.416352684E+02  4.484110131E+02  7.629394531E-06  0.00000E+00  9.000E+00
     -14     1     6     6     0     0  1.806965935E+01  2.415374799E+01  4.102432358E+01  5.092063684E+01  2.236564522E-06  0.00000E+00  9.000E+00
       5     1     3     3   502     0  3.574994661E+01 -4.441697778E+01 -3.997177275E+00  5.735387104E+01  4.750000000E+00  0.00000E+00  9.000E+00
      -5     1     4     4     0   512  1.025984698E+02  2.410561240E+01  3.527961845E+02  3.682325853E+02  4.750000000E+00  0.00000E+00  9.000E+00
      21     1     1     2   511   502 -4.252900616E+00 -7.224060308E+00  4.319529466E+02  4.320342837E+02  0.000000000E+00  0.00000E+00  9.000E+00
</event>
<event>
     13  10001  1.00000E+00  1.60056E+01 -1.00000E+00  1.79664E-01
      21    -1     0     0   502   503  0.000000000E+00  0.000000000E+00  1.299108329E+03  1.299108329E+03  0.000000000E+00  0.00000E+00  9.000E+00
      21    -1     0     0   512   504  0.000000000E+00  0.000000000E+00 -6.492481745E+01  6.492481745E+01  0.000000000E+00  0.00000E+00  9.000E+00
       6     2     1     2   502     0 -5.084207758E+01 -1.567590773E+02  2.633837224E+02  3.551243591E+02  1.720000000E+02  0.00000E+00  9.000E+00
      -6     2     1     2     0   504  6.538904341E+01  1.634347097E+02  9.557852843E+02  9.869630900E+02  1.720000000E+02  0.00000E+00  9.000E+00
      24     2     3     3     0     0 -7.323409281E-03 -1.666566729E+02  2.130574697E+02  2.827542765E+02  8.235319552E+01  0.00000E+00  9.000E+00
     -24     2     4     4     0     0  2.162169036E+00  3.504045394E+01  1.831010811E+02  2.011220355E+02  7.544242094E+01  0.00000E+00  9.000E+00
     -11     1     5     5     0     0  3.878033977E+01 -8.735669083E+01  8.980404603E+01  1.311482858E+02  4.264961200E-06  0.00000E+00  9.000E+00
      12     1     5     5     0     0 -3.878766318E+01 -7.929998212E+01  1.232534237E+02  1.516059907E+02  4.672030912E-06  0.00000E+00  9.000E+00
      13     1     6     6     0     0 -3.538747468E+01  6.476564243E+00  8.290611668E+01  9.037501552E+01  9.536743164E-07  0.00000E+00  9.000E+00
     -14     1     6     6     0     0  3.754964372E+01  2.856388970E+01  1.001949644E+02  1.107470200E+02  1.907348633E-06  0.00000E+00  9.000E+00
       5     1     3     3   502     0 -5.083475417E+01  9.897595676E+00  5.032625272E+01  7.237008252E+01  4.750000000E+00  0.00000E+00  9.000E+00
      -5     1     4     4     0   504  6.322687438E+01  1.283942558E+02  7.726842032E+02  7.858410545E+02  4.750000000E+00  0.00000E+00  9.000E+00
      21     1     1     2   512   503 -1.454696584E+01 -6.675632459E+00  1.501450516E+01  2.194569773E+01  1.685873940E-07  0.00000E+00  9.000E+00
</event>
<event>
     13  10001  1.00000E+00  8.12236E+01 -1.00000E+00  1.30590E-01
      21    -1     0     0   503   511  0.000000000E+00  0.000000000E+00  3.419080662E+02  3.419080662E+02  0.000000000E+00  0.00000E+00  9.000E+00
      21    -1     0     0   502   503  0.000000000E+00  0.000000000E+00 -2.170952362E+02  2.170952362E+02  0.000000000E+00  0.00000E+00  9.000E+00
       6     2     1     2   502     0  7.339907264E+01 -1.461428957E+01 -8.268721313E+01  2.049931134E+02  1.720000000E+02  0.00000E+00  9.000E+00
      -6     2     1     2     0   504 -4.142175935E+01 -6.004981047E+01  8.089882786E+01  2.035936203E+02  1.720000000E+02  0.00000E+00  9.000E+00
      24     2     3     3     0     0  1.965588938E+01  3.212502658E+01  7.663820909E+00  8.984640144E+01  8.121127003E+01  0.00000E+00  9.000E+00
     -24     2     4     4     0     0  6.579368649E+00  1.336974655E+01 -7.629350029E+00  7.887657889E+01  7.707963091E+01  0.00000E+00  9.000E+00
     -11     1     5     5     0     0  4.673518008E+01  3.977149038E+01  5.977308138E+00  6.165773849E+01  1.022006762E-06  0.00000E+00  9.000E+00
      12     1     5     5     0     0 -2.707929070E+01 -7.646463793E+00  1.686512771E+00  2.818866295E+01  7.456538679E-07  0.00000E+00  9.000E+00
      13     1     6     6     0     0  3.966906513E+01  1.742061059E+01 -1.271793910E+01  4.515371941E+01  1.261592536E-06  0.00000E+00  9.000E+00
     -14     1     6     6     0     0 -3.308969648E+01 -4.050864046E+00  5.088589066E+00  3.372285948E+01  1.103893469E-06  0.00000E+00  9.000E+00
       5     1     3     3   502     0  5.374318326E+01 -4.673931616E+01 -9.035103404E+01  1.151467120E+02  4.750000000E+00  0.00000E+00  9.000E+00
      -5     1     4     4     0   504 -4.800112800E+01 -7.341955702E+01  8.852817789E+01  1.247170414E+02  4.750000000E+00  0.00000E+00  9.000E+00
      21     1     1     2   504   511 -3.197731329E+01  7.466410004E+01  1.266012153E+02  1.504165686E+02  0.000000000E+00  0.00000E+00  9.000E+00
</event>
<event>
     13  10001  1.00000E+00  4.96982E+01 -1.00000E+00  1.42270E-01
      21    -1     0     0   512   503  0.000000000E+00  0.000000000E+00  3.063385464E+02  3.063385464E+02  0.000000000E+00  0.00000E+00  9.000E+00
      21    -1     0     0   503   504  0.000000000E+00  0.000000000E+00 -6.554131265E+02  6.554131265E+02  0.000000000E+00  0.00000E+00  9.000E+00
       6     2     1     2   502     0  1.494301174E+02 -1.986506717E+01 -5.620374366E+02  6.067899645E+02  1.720000000E+02  0.00000E+00  9.000E+00
      -6     2     1     2     0   504 -1.278286816E+02 -2.489299716E+01  1.135021562E+02  2.437756604E+02  1.720000000E+02  0.00000E+00  9.000E+00
      24     2     3     3     0     0  7.812461266E+01  4.692633666E+01 -2.227531933E+02  2.536866837E+02  8.020232046E+01  0.00000E+00  9.000E+00
     -24     2     4     4     0     0 -4.692725668E+01  2.090593490E+01 -1.051156615E+00  9.616940474E+01  8.129098317E+01  0.00000E+00  9.000E+00
     -11     1     5     5     0     0  1.206903566E+01 -8.252578534E-01  3.990202730E+00  1.273830405E+01  8.205115734E-07  0.00000E+00  9.000E+00
      12     1     5     5     0     0  6.605557700E+01  4.775159451E+01 -2.267433960E+02  2.409483797E+02  2.697398305E-06  0.00000E+00  9.000E+00
      13     1     6     6     0     0 -1.149015525E+01  1.901941720E+01  3.761421601E+01  4.368742548E+01  6.743495762E-07  0.00000E+00  9.000E+00
     -14     1     6     6     0     0 -3.543710143E+01  1.886517702E+00 -3.866537263E+01  5.248197926E+01  6.743495762E-07  0.00000E+00  9.000E+00
       5     1     3     3   502     0  7.130550474E+01 -6.679140383E+01 -3.392842433E+02  3.531032807E+02  4.750000000E+00  0.00000E+00  9.000E+00
      -5     1     4     4     0   504 -8.090142489E+01 -4.579893207E+01  1.145533129E+02  1.476062557E+02  4.750000000E+00  0.00000E+00  9.000E+00
      21     1     1     2   512   502 -2.160143583E+01  4.475806433E+01  9.946070025E+01  1.111860479E+02  1.907348633E-06  0.00000E+00  9.000E+00
</event>
<event>
     13  10001  1.00000E+00  1.53277E+02 -1.00000E+00  1.18111E-01
      21    -1     0     0   502   511  0.000000000E+00  0.000000000E+00  7.188701845E+02  7.188701845E+02  0.000000000E+00  0.00000E+00  9.000E+00
      21    -1     0     0   503   504  0.000000000E+00  0.000000000E+00 -1.787238582E+02  1.787238582E+02  0.000000000E+00  0.00000E+00  9.000E+00
       6     2     1     2   502     0  1.031574170E+02 -2.116315267E+02  1.748314328E+02  3.399696835E+02  1.720000000E+02  0.00000E+00  9.000E+00
      -6     2     1     2     0   504 -1.714707304E+02  7.441947117E+01  1.556673634E+02  2.979207900E+02  1.720000000E+02  0.00000E+00  9.000E+00
      24     2     3     3     0     0  7.958918187E+00 -6.799302206E+01  2.146959201E+01  1.092378241E+02  8.237453135E+01  0.00000E+00  9.000E+00
     -24     2     4     4     0     0 -9.488694409E+01 -2.298975247E+01  1.036160536E+02  1.634383207E+02  8.027289240E+01  0.00000E+00  9.000E+00
     -11     1     5     5     0     0  3.390701829E+01 -6.797443737E+01  3.036670874E+01  8.180676637E+01  2.454669509E-06  0.00000E+00  9.000E+00
      12     1     5     5     0     0 -2.594810010E+01 -1.858468989E-02 -8.897116727E+00  2.743105777E+01  8.596304120E-07  0.00000E+00  9.000E+00
      13     1     6     6     0     0 -2.316298975E+01  2.948368685E+01  2.908175550E+01  4.745060998E+01  1.390207266E-06  0.00000E+00  9.000E+00
     -14     1     6     6     0     0 -7.172395434E+01 -5.247343932E+01  7.453429808E+01  1.159877108E+02  0.000000000E+00  0.00000E+00  9.000E+00
       5     1     3     3   502     0  9.519849879E+01 -1.436385047E+02  1.533618408E+02  2.307318593E+02  4.750000000E+00  0.00000E+00  9.000E+00
      -5     1     4     4     0   504 -7.658378628E+01  9.740922364E+01  5.205130985E+01  1.344824692E+02  4.750000000E+00  0.00000E+00  9.000E+00
      21     1     1     2   503   511  6.831331339E+01  1.372120556E+02  2.096475300E+02  2.597035692E+02  4.672030912E-06  0.00000E+00  9.000E+00
</event>
<event>
     13  10001  1.00000E+00  2.31578E+01 -1.00000E+00  1.65418E-01
       2    -1     0     0   513     0  0.000000000E+00  0.000000000E+00  4.845723201E+02  4.845723201E+02  0.000000000E+00  0.00000E+00  9.000E+00
      -2    -1     0     0     0   512  0.000000000E+00  0.000000000E+00 -7.840980174E+01  7.840980174E+01  0.000000000E+00  0.00000E+00  9.000E+00
       6     2     1     2   502     0  8.586986003E+00  1.204743292E+01  1.098531025E+02  2.046230219E+02  1.720000000E+02  0.00000E+00  9.000E+00
      -6     2     1     2     0   512  1.316940907E+01 -4.113757621E+00  2.260506857E+02  2.843822583E+02  1.720000000E+02  0.00000E+00  9.000E+00
      24     2     3     3     0     0  2.328675572E+01  6.720924198E+01  7.455367892E+01  1.373361717E+02  9.079437105E+01  0.00000E+00  9.000E+00
     -24     2     4     4     0     0  5.286254090E+01 -5.051838006E+00  5.786411645E+01  1.115074213E+02  7.915604669E+01  0.00000E+00  9.000E+00
     -11     1     5     5     0     0 -1.550064848E+01 -1.657239237E+01  1.892378944E+01  2.954698122E+01  3.371747881E-07  0.00000E+00  9.000E+00
      12     1     5     5     0     0  3.878740419E+01  8.378163435E+01  5.562988948E+01  1.077891905E+02  3.504023184E-06  0.00000E+00  9.000E+00
      13     1     6     6     0     0  3.682911470E+01 -4.131166769E+01  3.823487115E+01  6.726769618E+01  1.507891493E-06  0.00000E+00  9.000E+00
     -14     1     6     6     0     0  1.603342620E+01  3.625982969E+01  1.962924530E+01  4.423972509E+01  7.907449699E-07  0.00000E+00  9.000E+00
       5     1     3     3   502     0 -1.469976971E+01 -5.516180906E+01  3.529942358E+01  6.728685023E+01  4.750000000E+00  0.00000E+00  9.000E+00
      -5     1     4     4     0   512 -3.969313183E+01  9.380803850E-01  1.681865692E+02  1.728748370E+02  4.750000000E+00  0.00000E+00  9.000E+00
      21     1     1     2   513   502 -2.175639507E+01 -7.933675302E+00  7.025873013E+01  7.397684158E+01  9.536743164E-07  0.00000E+00  9.000E+00
</event>
<event>
     13  10001  1.00000E+00  1.26983E+02 -1.00000E+00  1.21547E-01
       1    -1     0     0   502     0  0.000000000E+00  0.000000000E+00  1.221116562E+03  1.221116562E+03  0.000000000E+00  0.00000E+00  9.000E+00
      21    -1     0     0   503   504  0.000000000E+00  0.000000000E+00 -1.709971096E+02  1.709971096E+02  0.000000000E+00  0.00000E+00  9.000E+00
       6     2     1     2   502     0  2.917629626E+01  3.184111389E+01  1.259298499E+02  2.175027354E+02  1.720000000E+02  0.00000E+00  9.000E+00
      -6     2     1     2     0   504 -5.992779188E+01  9.136228852E+01 -3.525661038E+01  2.067980575E+02  1.720000000E+02  0.00000E+00  9.000E+00
      24     2     3     3     0     0  2.360655355E+01 -4.222766852E+01  5.507609104E+00  7.593548936E+01  5.827022762E+01  0.00000E+00  9.000E+00
     -24     2     4     4     0     0  1.669293060E+01  6.874421584E+01  2.001048919E+01  1.095389853E+02  8.120313099E+01  0.00000E+00  9.000E+00
     -11     1     5     5     0     0  3.135530456E+01 -1.601248855E+01 -1.830532877E+01  3.968173351E+01  9.233911863E-07  0.00000E+00  9.000E+00
      12     1     5     5     0     0 -7.748751005E+00 -2.621517998E+01  2.381293787E+01  3.625375585E+01  1.066240300E-06  0.00000E+00  9.000E+00
      13     1     6     6     0     0  9.942529593E-01  8.427584590E+01  8.705658219E+00  8.473013175E+01  2.198110689E-06  0.00000E+00  9.000E+00
     -14     1     6     6     0     0  1.569867764E+01 -1.553163006E+01  1.130483097E+01  2.480885357E+01  5.960464478E-07  0.00000E+00  9.000E+00
       5     1     3     3   502     0  5.569742708E+00  7.406878241E+01  1.204222408E+02  1.415672460E+02  4.750000000E+00  0.00000E+00  9.000E+00
      -5     1     4     4     0   504 -7.662072247E+01  2.261807268E+01 -5.526709957E+01  9.725907217E+01  4.750000000E+00  0.00000E+00  9.000E+00
       1     1     1     2   503     0  3.075149562E+01 -1.232034024E+02  9.594462127E+02  9.678128786E+02  1.525878906E-05  0.00000E+00  9.000E+00
</event>
<event>
     13  10001  1.00000E+00  5.48862E+01 -1.00000E+00  1.39739E-01
      21    -1     0     0   502   511  0.000000000E+00  0.000000000E+00  3.332367528E+02  3.332367528E+02  0.000000000E+00  0.00000E+00  9.000E+00
      21    -1     0     0   503   504  0.000000000E+00  0.000000000E+00 -1.681742783E+02  1.681742783E+02  0.000000000E+00  0.00000E+00  9.000E+00
       6     2     1     2   502     0 -3.127366958E+01  7.479576487E+01  9.273277981E+01  2.115557073E+02  1.720000000E+02  0.00000E+00  9.000E+00
      -6     2     1     2     0   504  1.248052820E+00 -1.207409478E+02  1.530629781E+01  2.107088438E+02  1.720000000E+02  0.00000E+00  9.000E+00
      24     2     3     3     0     0  2.199398855E+01 -1.776568959E+01  3.853832494E+01  9.170301569E+01  7.826164666E+01  0.00000E+00  9.000E+00
     -24     2     4     4     0     0  5.815051485E+01 -3.211045034E+01  4.431146342E-01  1.042347532E+02  8.032511451E+01  0.00000E+00  9.000E+00
     -11     1     5     5     0     0 -1.755713764E+01  2.011796645E+01  2.169441788E+01  3.440397395E+01  6.743495762E-07  0.00000E+00  9.000E+00
      12     1     5     5     0     0  3.955112619E+01 -3.788365605E+01  1.684390706E+01  5.729904173E+01  9.233911863E-07  0.00000E+00  9.000E+00
      13     1     6     6     0     0  1.178634915E+01 -2.133515642E+01  3.693757983E+01  4.425484979E+01  4.768371582E-07  0.00000E+00  9.000E+00
     -14     1     6     6     0     0  4.636416571E+01 -1.077529392E+01 -3.649446520E+01  5.997990339E+01  0.000000000E+00  0.00000E+00  9.000E+00
       5     1     3     3   502     0 -5.326765813E+01  9.256145446E+01  5.419445487E+01  1.198526916E+02  4.750000000E+00  0.00000E+00  9.000E+00
      -5     1     4     4     0   504 -5.690246203E+01 -8.863049743E+01  1.486318318E+01  1.064740906E+02  4.750000000E+00  0.00000E+00  9.000E+00
      21     1     1     2   503   511  3.002561676E+01  4.594518290E+01  5.702339695E+01  7.914647998E+01  6.743495762E-07  0.00000E+00  9.000E+00
</event>
<event>
     13  10001  1.00000E+00  1.81434E+01 -1.00000E+00  1.74552E-01
      21    -1     0     0   502   503  0.000000000E+00  0.000000000E+00  2.502452309E+02  2.502452309E+02  0.000000000E+00  0.00000E+00  9.000E+00
      21    -1     0     0   512   504  0.000000000E+00  0.000000000E+00 -4.567212980E+02  4.567212980E+02  0.000000000E+00  0.00000E+00  9.000E+00
       6     2     1     2   502     0 -2.177077399E+01 -1.263838333E+02 -9.222678801E+00  2.147461239E+02  1.720000000E+02  0.00000E+00  9.000E+00
      -6     2     1     2     0   504  6.893053451E+00  1.159994136E+02  7.399243508E+01  2.203684610E+02  1.720000000E+02  0.00000E+00  9.000E+00
      24     2     3     3     0     0  5.746646709E+01 -9.889895593E+01 -1.281922001E+01  1.306660640E+02  6.185377565E+01  0.00000E+00  9.000E+00
     -24     2     4     4     0     0 -1.423241835E+01  6.211464520E+01 -2.547993157E+01  1.051852675E+02  7.971149674E+01  0.00000E+00  9.000E+00
     -11     1     5     5     0     0 -5.312722074E+00 -4.849571129E+01  1.898473714E+00  4.882277370E+01  4.851466595E-07  0.00000E+00  9.000E+00
      12     1     5     5     0     0  6.277918917E+01 -5.040324465E+01 -1.471769372E+01  8.184329033E+01  2.016012016E-06  0.00000E+00  9.000E+00
      13     1     6     6     0     0 -4.385177358E+01  1.739393427E+01 -3.795238367E+00  4.732790751E+01  8.800520337E-07  0.00000E+00  9.000E+00
     -14     1     6     6     0     0  2.961935522E+01  4.472071092E+01 -2.168469320E+01  5.785736002E+01  1.215700987E-06  0.00000E+00  9.000E+00
       5     1     3     3   502     0 -7.923724108E+01 -2.748487740E+01  3.596541209E+00  8.408005988E+01  4.750000000E+00  0.00000E+00  9.000E+00
      -5     1     4     4     0   504  2.112547180E+01  5.388476844E+01  9.947236665E+01  1.151831935E+02  4.750000000E+00  0.00000E+00  9.000E+00
      21     1     1     2   512   503  1.487772054E+01  1.038441969E+01 -2.712458234E+02  2.718519440E+02  5.394796609E-06  0.00000E+00  9.000E+00
</event>
<event>
     13  10001  1.00000E+00  1.12761E+02 -1.00000E+00  1.23824E-01
      21    -1     0     0   503   504  0.000000000E+00  0.000000000E+00  2.765882709E+02  2.765882709E+02  0.000000000E+00  0.00000E+00  9.000E+00
      21    -1     0     0   502   511  0.000000000E+00  0.000000000E+00 -4.179734590E+02  4.179734590E+02  0.000000000E+00  0.00000E+00  9.000E+00
       6     2     1     2   502     0  1.156234824E+02 -2.975085339E+01  6.444599694E+00  2.094741889E+02  1.720000000E+02  0.00000E+00  9.000E+00
      -6     2     1     2     0   504 -3.311035734E+01 -4.710412400E+01  1.040590514E+02  2.091109285E+02  1.720000000E+02  0.00000E+00  9.000E+00
      24     2     3     3     0     0  2.074751553E+01  1.735266209E+01  4.735611138E+01  9.582338802E+01  7.879052052E+01  0.00000E+00  9.000E+00
     -24     2     4     4     0     0  3.922806667E+01 -1.059352000E+01  1.800335557E+01  9.081461806E+01  7.919665499E+01  0.00000E+00  9.000E+00
     -11     1     5     5     0     0  3.474569509E+01  8.915559235E+00 -9.134341299E+00  3.701603321E+01  1.526623782E-06  0.00000E+00  9.000E+00
      12     1     5     5     0     0 -1.399817955E+01  8.437102852E+00  5.649045268E+01  5.880735481E+01  1.168007728E-06  0.00000E+00  9.000E+00
      13     1     6     6     0     0  1.560179914E+01 -3.879947316E+01  3.071532106E+01  5.188685962E+01  8.920806376E-07  0.00000E+00  9.000E+00
     -14     1     6     6     0     0  2.362626753E+01  2.820595315E+01 -1.271196549E+01  3.892775844E+01  4.768371582E-07  0.00000E+00  9.000E+00
       5     1     3     3   502     0  9.487596684E+01 -4.710351548E+01 -4.091151169E+01  1.136508009E+02  4.750000000E+00  0.00000E+00  9.000E+00
      -5     1     4     4     0   504 -7.233842401E+01 -3.651060400E+01  8.605569580E+01  1.182963105E+02  4.750000000E+00  0.00000E+00  9.000E+00
      21     1     1     2   503   511 -8.251312503E+01  7.685497740E+01 -2.518888391E+02  2.759766124E+02  0.000000000E+00  0.00000E+00  9.000E+00
</event>
<event>
     13  10001  1.00000E+00  6.12972E+00 -1.00000E+00  2.32328E-01
       2    -1     0     0   502     0  0.000000000E+00  0.000000000E+00  7.457856088E+02  7.457856088E+02  0.000000000E+00  0.00000E+00  9.000E+00
      21    -1     0     0   503   504  0.000000000E+00  0.000000000E+00 -3.731978428E+02  3.731978428E+02  0.000000000E+00  0.00000E+00  9.000E+00
       6     2     1     2   502     0  6.496062541E+01 -2.043364692E+01 -1.486550957E+02  2.373178338E+02  1.720000000E+02  0.00000E+00  9.000E+00
      -6     2     1     2     0   504 -6.308421477E+01  1.459818898E+01 -1.333362035E+02  2.270578526E+02  1.720000000E+02  0.00000E+00  9.000E+00
      24     2     3     3     0     0  6.304057636E+00 -5.654268247E+01 -1.354650280E+02  1.670256168E+02  7.943529926E+01  0.00000E+00  9.000E+00
     -24     2     4     4     0     0 -1.021070460E+01 -4.101958475E+01 -2.589670995E+01  9.494141871E+01  8.097140594E+01  0.00000E+00  9.000E+00
     -11     1     5     5     0     0  2.751153402E+00  2.041961478E+01 -3.100499707E+01  3.722686337E+01  1.617033478E-06  0.00000E+00  9.000E+00
      12     1     5     5     0     0  3.552904234E+00 -7.696229725E+01 -1.044600309E+02  1.297987534E+02  0.000000000E+00  0.00000E+00  9.000E+00
      13     1     6     6     0     0 -1.453638445E+01 -2.391512089E+01 -5.453952538E+01  6.130089158E+01  1.168007728E-06  0.00000E+00  9.000E+00
     -14     1     6     6     0     0  4.325679851E+00 -1.710446386E+01  2.864281543E+01  3.364052713E+01  8.259061849E-07  0.00000E+00  9.000E+00
       5     1     3     3   502     0  5.865656777E+01  3.610903555E+01 -1.319006769E+01  7.029221704E+01  4.750000000E+00  0.00000E+00  9.000E+00
      -5     1     4     4     0   504 -5.287351017E+01  5.561777374E+01 -1.074394936E+02  1.321164339E+02  4.750000000E+00  0.00000E+00  9.000E+00
       2     1     1     2   503     0 -1.876410638E+00  5.835457932E+00  6.545790652E+02  6.546077651E+02  0.000000000E+00  0.00000E+00  9.000E+00
</event>
<event>
     13  10001  1.00000E+00  5.07433E+01 -1.00000E+00  1.41732E-01
      21    -1     0     0   503   504  0.000000000E+00  0.000000000E+00  6.281884439E+02  6.281884439E+02  0.000000000E+00  0.00000E+00  9.000E+00
      21    -1     0     0   511   503  0.000000000E+00  0.000000000E+00 -1.555076615E+02  1.555076615E+02  0.000000000E+00  0.00000E+00  9.000E+00
       6     2     1     2   502     0 -2.800963125E+01  2.365786099E+01  4.457630079E+02  4.792002641E+02  1.720000000E+02  0.00000E+00  9.000E+00
      -6     2     1     2     0   504 -7.556340885E+00  1.253528878E+01  1.117565564E+02  2.056398785E+02  1.720000000E+02  0.00000E+00  9.000E+00
      24     2     3     3     0     0 -9.467775219E+00 -3.828484717E+01  3.803708231E+02  3.871166072E+02  6.018252438E+01  0.00000E+00  9.000E+00
     -24     2     4     4     0     0  5.521734837E+01  2.171364329E+01  5.118001381E+01  1.177942283E+02  8.795253575E+01  0.00000E+00  9.000E+00
     -11     1     5     5     0     0 -2.016522885E+01 -9.237618730E+00  3.026012403E+02  3.034130530E+02  7.629394531E-06  0.00000E+00  9.000E+00
      12     1     5     5     0     0  1.069745363E+01 -2.904722844E+01  7.776958271E+01  8.370355422E+01  1.907348633E-06  0.00000E+00  9.000E+00
      13     1     6     6     0     0 -7.265141554E+00 -1.183667713E+01 -1.524616277E+01  2.062364387E+01  6.743495762E-07  0.00000E+00  9.000E+00
     -14     1     6     6     0     0  6.248248992E+01  3.355032042E+01  6.642617658E+01  9.717058445E+01  1.348699152E-06  0.00000E+00  9.000E+00
       5     1     3     3   502     0 -1.854185603E+01  6.194270816E+01  6.539218489E+01  9.208365688E+01  4.750000000E+00  0.00000E+00  9.000E+00
      -5     1     4     4     0   504 -6.277368926E+01 -9.178354510E+00  6.057654256E+01  8.784565022E+01  4.750000000E+00  0.00000E+00  9.000E+00
      21     1     1     2   511   502  3.556597214E+01 -3.619314977E+01 -8.483878192E+01  9.885596280E+01  2.523185073E-06  0.00000E+00  9.000E+00
</event>
<event>
     13  10001  1.00000E+00  5.45696E+01 -1.00000E+00  1.39884E-01
       2    -1     0     0   502     0  0.000000000E+00  0.000000000E+00  1.770445466E+03  1.770445466E+03  0.000000000E+00  0.00000E+00  9.000E+00
      21    -1     0     0   503   504  0.000000000E+00  0.000000000E+00 -1.865471182E+02  1.865471182E+02  0.000000000E+00  0.00000E+00  9.000E+00
       6     2     1     2   502     0  4.987883008E+01  8.889749661E+01  3.678712022E+02  4.186930666E+02  1.720000000E+02  0.00000E+00  9.000E+00
      -6     2     1     2     0   504 -7.753125363E+01 -1.359419625E+02 -7.636264110E+01  2.447581774E+02  1.720000000E+02  0.00000E+00  9.000E+00
      24     2     3     3     0     0  1.437561462E+00  2.898408519E+01  7.170399128E+01  1.126313854E+02  8.186710469E+01  0.00000E+00  9.000E+00
     -24     2     4     4     0     0  1.236070902E+01 -2.610330906E+01 -8.055817124E+00  8.717175846E+01  8.185260785E+01  0.00000E+00  9.000E+00
     -11     1     5     5     0     0 -3.767459123E+01  2.745729673E+01  3.000624629E+01  5.544053376E+01  1.066240300E-06  0.00000E+00  9.000E+00
      12     1     5     5     0     0  3.911215269E+01  1.526788464E+00  4.169774499E+01  5.719085161E+01  4.768371582E-07  0.00000E+00  9.000E+00
      13     1     6     6     0     0 -5.780981596E+00  2.765157802E+01 -1.111085054E+01  3.035589753E+01  4.460403188E-07  0.00000E+00  9.000E+00
     -14     1     6     6     0     0  1.814169062E+01 -5.375488708E+01  3.055033419E+00  5.681586093E+01  1.615384845E-06  0.00000E+00  9.000E+00
       5     1     3     3   502     0  4.844126862E+01  5.991341142E+01  2.961672109E+02  3.060616812E+02  4.750000000E+00  0.00000E+00  9.000E+00
      -5     1     4     4     0   504 -8.989196266E+01 -1.098386534E+02 -6.830682398E+01  1.575864189E+02  4.750000000E+00  0.00000E+00  9.000E+00
       2     1     1     2   503     0  2.765242356E+01  4.704446586E+01  1.292389787E+03  1.293541340E+03  0.000000000E+00  0.00000E+00  9.000E+00
</event>
<event>
     13  10001  1.00000E+00  1.15460E+02 -1.00000E+00  1.23364E-01
      21    -1     0     0   502   503  0.000000000E+00  0.000000000E+00  1.353669456E+02  1.353669456E+02  0.000000000E+00  0.00000E+00  9.000E+00
       1    -1     0     0   503     0  0.000000000E+00  0.000000000E+00 -7.243183451E+02  7.243183451E+02  0.000000000E+00  0.00000E+00  9.000E+00
       6     2     1     2   502     0  6.468350474E+01 -1.975142139E+02 -2.240419362E+02  3.506773584E+02  1.720000000E+02  0.00000E+00  9.000E+00
      -6     2     1     2     0   504  4.411892127E+01  1.588757090E+02 -2.645033772E+02  3.559972004E+02  1.720000000E+02  0.00000E+00  9.000E+00
      24     2     3     3     0     0  2.010985223E+01 -1.299578603E+02 -2.218350969E+02  2.695718465E+02  7.851572210E+01  0.00000E+00  9.000E+00
     -24     2     4     4     0     0  3.378903199E+01  3.255287592E+01 -1.683138297E+02  1.968144239E+02  9.058136554E+01  0.00000E+00  9.000E+00
     -11     1     5     5     0     0  4.570284475E+01 -4.493484014E+01 -8.507582080E+01  1.065165957E+02  1.348699152E-06  0.00000E+00  9.000E+00
      12     1     5     5     0     0 -2.559299252E+01 -8.502302014E+01 -1.367592761E+02  1.630552508E+02  1.907348633E-06  0.00000E+00  9.000E+00
      13     1     6     6     0     0  4.837077342E+01  3.016742254E+01 -4.502496251E+01  7.264332284E+01  1.168007728E-06  0.00000E+00  9.000E+00
     -14     1     6     6     0     0 -1.458174143E+01  2.385453380E+00 -1.232888672E+02  1.241711011E+02  1.907348633E-06  0.00000E+00  9.000E+00
       5     1     3     3   502     0  4.457365251E+01 -6.755635366E+01 -2.206839360E+00  8.110551188E+01  4.750000000E+00  0.00000E+00  9.000E+00
      -5     1     4     4     0   504  1.032988928E+01  1.263228331E+02 -9.618954748E+01  1.591827764E+02  4.750000000E+00  0.00000E+00  9.000E+00
       1     1     1     2   504     0 -1.088024260E+02  3.863850495E+01 -1.004060860E+02  1.530107319E+02  1.907348633E-06  0.00000E+00  9.000E+00
</event>
<event>
     13  10001  1.00000E+00  1.34126E+02 -1.00000E+00  1.20527E-01
       2    -1     0     0   502     0  0.000000000E+00  0.000000000E+00  6.591351023E+02  6.591351023E+02  0.000000000E+00  0.00000E+00  9.000E+00
      21    -1     0     0   503   504  0.000000000E+00  0.000000000E+00 -1.308220473E+02  1.308220473E+02  0.000000000E+00  0.00000E+00  9.000E+00
       6     2     1     2   502     0 -4.385072436E+01 -5.207278873E+01  5.472709142E+01  1.929080503E+02  1.720000000E+02  0.00000E+00  9.000E+00
      -6     2     1     2     0   504  9.078956595E+01 -7.357176459E+01  1.829877754E+02  2.769911114E+02  1.720000000E+02  0.00000E+00  9.000E+00
      24     2     3     3     0     0 -7.693592441E+01 -7.271244636E+01  7.142013662E+01  1.502249602E+02  7.912310927E+01  0.00000E+00  9.000E+00
     -24     2     4     4     0     0  9.351871541E+01 -9.848790847E+01  1.886860712E+02  2.508511887E+02  9.422455705E+01  0.00000E+00  9.000E+00
     -11     1     5     5     0     0 -6.997624119E+01 -2.131510733E+01  6.519427040E+01  9.798622875E+01  1.907348633E-06  0.00000E+00  9.000E+00
      12     1     5     5     0     0 -6.959683226E+00 -5.139733903E+01  6.225866214E+00  5.223873141E+01  5.331201500E-07  0.00000E+00  9.000E+00
      13     1     6     6     0     0 -1.782428032E+01 -2.515957418E+01  4.782027816E+01  5.689892921E+01  6.743495762E-07  0.00000E+00  9.000E+00
     -14     1     6     6     0     0  1.113429957E+02 -7.332833429E+01  1.408657931E+02  1.939522595E+02  3.303624740E-06  0.00000E+00  9.000E+00
       5     1     3     3   502     0  3.308520005E+01  2.063965763E+01 -1.669304520E+01  4.268309018E+01  4.750000000E+00  0.00000E+00  9.000E+00
      -5     1     4     4     0   504 -2.729149455E+00  2.491614388E+01 -5.698295802E+00  2.613992268E+01  4.750000000E+00  0.00000E+00  9.000E+00
       2     1     1     2   503     0 -4.693884159E+01  1.256445533E+02  2.905981882E+02  3.200579879E+02  3.814697266E-06  0.00000E+00  9.000E+00
</event>
<event>
     13  10001  1.00000E+00  4.79061E+01 -1.00000E+00  1.43230E-01
      21    -1     0     0   502   503  0.000000000E+00  0.000000000E+00  6.271934246E+01  6.271934246E+01  0.000000000E+00  0.00000E+00  9.000E+00
       2    -1     0     0   503     0  0.000000000E+00  0.000000000E+00 -1.278762296E+03  1.278762296E+03  0.000000000E+00  0.00000E+00  9.000E+00
       6     2     1     2   502     0 -5.088051901E+01 -5.939400472E+01 -5.746410215E+02  6.049072479E+02  1.720000000E+02  0.00000E+00  9.000E+00
      -6     2     1     2     0   504  9.159280897E+01  3.414522830E+01 -1.645564370E+02  2.573285064E+02  1.720000000E+02  0.00000E+00  9.000E+00
      24     2     3     3     0     0  1.110651163E+01 -3.359169885E+00 -1.795931162E+02  2.010908234E+02  8.971729641E+01  0.00000E+00  9.000E+00
     -24     2     4     4     0     0  1.086272752E+02  7.350654863E+01 -1.374248497E+02  2.063562384E+02  8.058666267E+01  0.00000E+00  9.000E+00
     -11     1     5     5     0     0  4.406668903E+01  4.126336550E+00 -1.492332262E+02  1.556581368E+02  3.814697266E-06  0.00000E+00  9.000E+00
      12     1     5     5     0     0 -3.296017740E+01 -7.485506435E+00 -3.035988996E+01  4.543268669E+01  1.168007728E-06  0.00000E+00  9.000E+00
      13     1     6     6     0     0 -7.702714554E-01  3.232008758E+01 -1.094511164E+01  3.413175718E+01  3.371747881E-07  0.00000E+00  9.000E+00
     -14     1     6     6     0     0  1.093975467E+02  4.118646105E+01 -1.264797380E+02  1.722244812E+02  2.697398305E-06  0.00000E+00  9.000E+00
       5     1     3     3   502     0 -6.198703064E+01 -5.603483484E+01 -3.950479053E+02  4.038164245E+02  4.750000000E+00  0.00000E+00  9.000E+00
      -5     1     4     4     0   504 -1.703446626E+01 -3.936132033E+01 -2.713158730E+01  5.097226803E+01  4.750000000E+00  0.00000E+00  9.000E+00
       2     1     1     2   504     0 -4.071228996E+01  2.524877642E+01 -4.768454956E+02  4.792458846E+02  7.629394531E-06  0.00000E+00  9.000E+00
</event>
<event>
     13  10001  1.00000E+00  4.11654E+00 -1.00000E+00  2.71990E-01
      21    -1     0     0   503   504  0.000000000E+00  0.000000000E+00  9.425767016E+01  9.425767016E+01  0.000000000E+00  0.00000E+00  9.000E+00
      21    -1     0     0   511   503  0.000000000E+00  0.000000000E+00 -8.458515183E+02  8.458515183E+02  0.000000000E+00  0.00000E+00  9.000E+00
       6     2     1     2   502     0 -1.779219799E+01  8.453012514E+01 -3.402877945E+01  1.954580830E+02  1.720000000E+02  0.00000E+00  9.000E+00
      -6     2     1     2     0   504  2.163137895E+01 -8.304466046E+01 -6.734703797E+02  7.003646796E+02  1.720000000E+02  0.00000E+00  9.000E+00
      24     2     3     3     0     0 -6.762143902E+01  2.222745177E+01 -3.714133183E+01  1.154779176E+02  8.299971261E+01  0.00000E+00  9.000E+00
     -24     2     4     4     0     0 -1.160336809E+01  1.354277878E+01 -4.067356789E+02  4.147011627E+02  7.889928277E+01  0.00000E+00  9.000E+00
     -11     1     5     5     0     0  1.196089066E+01  2.658587969E+01 -5.192768227E+00  2.961142932E+01  2.230201594E-07  0.00000E+00  9.000E+00
      12     1     5     5     0     0 -7.958232969E+01 -4.358427921E+00 -3.194856361E+01  8.586648828E+01  8.920806376E-07  0.00000E+00  9.000E+00
      13     1     6     6     0     0 -4.360676372E+01  1.194885696E+01 -2.956134129E+02  2.990511912E+02  3.814697266E-06  0.00000E+00  9.000E+00
     -14     1     6     6     0     0  3.200339562E+01  1.593921819E+00 -1.111222660E+02  1.156499715E+02  1.348699152E-06  0.00000E+00  9.000E+00
       5     1     3     3   502     0  4.982924103E+01  6.230267337E+01  3.112552378E+00  7.998016537E+01  4.750000000E+00  0.00000E+00  9.000E+00
      -5     1     4     4     0   504  3.323474704E+01 -9.658743923E+01 -2.667347007E+02  2.856635169E+02  4.750000000E+00  0.00000E+00  9.000E+00
      21     1     1     2   511   502 -3.839180957E+00 -1.485464679E+00 -4.409468906E+01  4.428642590E+01  4.768371582E-07  0.00000E+00  9.000E+00
</event>
<event>
     13  10001  1.00000E+00  4.72472E+00 -1.00000E+00  2.57735E-01
       1    -1     0     0   502     0  0.000000000E+00  0.000000000E+00  5.944653582E+02  5.944653582E+02  0.000000000E+00  0.00000E+00  9.000E+00
      -1    -1     0     0     0   513  0.000000000E+00  0.000000000E+00 -1.179641467E+02  1.179641467E+02  0.000000000E+00  0.00000E+00  9.000E+00
       6     2     1     2   502     0 -1.232339849E+02 -1.159906645E+02  3.797025460E+02  4.498871778E+02  1.720000000E+02  0.00000E+00  9.000E+00
      -6     2     1     2     0   512  1.217078518E+02  1.115192156E+02  9.785775722E+01  2.577003634E+02  1.720000000E+02  0.00000E+00  9.000E+00
      24     2     3     3     0     0 -1.156780411E+00 -2.650662958E+01  9.809035720E+01  1.301400531E+02  8.130667679E+01  0.00000E+00  9.000E+00
     -24     2     4     4     0     0  2.205789130E+01  1.026232518E+02  3.032011228E+01  1.368982575E+02  8.248479455E+01  0.00000E+00  9.000E+00
     -11     1     5     5     0     0  3.485893095E+01 -1.665308535E+01  1.982152037E+01  4.342076678E+01  7.539457465E-07  0.00000E+00  9.000E+00
      12     1     5     5     0     0 -3.601571136E+01 -9.853544236E+00  7.826883683E+01  8.671928631E+01  2.132480600E-06  0.00000E+00  9.000E+00
      13     1     6     6     0     0 -2.712615020E+00 -1.076613730E+01  1.667830631E+01  2.003581528E+01  7.539457465E-07  0.00000E+00  9.000E+00
     -14     1     6     6     0     0  2.477050632E+01  1.133893891E+02  1.364180598E+01  1.168624422E+02  1.039242493E-06  0.00000E+00  9.000E+00
       5     1     3     3   502     0 -1.220772045E+02 -8.948403495E+01  2.816121888E+02  3.197471247E+02  4.750000000E+00  0.00000E+00  9.000E+00
      -5     1     4     4     0   512  9.964996047E+01  8.895963847E+00  6.753764494E+01  1.208021058E+02  4.750000000E+00  0.00000E+00  9.000E+00
      21     1     1     2   512   513  1.526133145E+00  4.471448929E+00 -1.059091642E+00  4.841963756E+00  6.322027277E-08  0.00000E+00  9.000E+00
</event>
<event>
     13  10001  1.00000E+00  1.85086E+01 -1.00000E+00  1.73767E-01
      21    -1     0     0   503   511  0.000000000E+00  0.000000000E+00  2.722908752E+02  2.722908752E+02  0.000000000E+00  0.00000E+00  9.000E+00
      21    -1     0     0   502   503  0.000000000E+00  0.000000000E+00 -7.165404543E+02  7.165404543E+02  0.000000000E+00  0.00000E+00  9.000E+00
       6     2     1     2   502     0  2.505867305E+02  4.155559933E+01 -5.449525447E+02  6.253621777E+02  1.720000000E+02  0.00000E+00  9.000E+00
      -6     2     1     2     0   504 -2.645264351E+02 -2.937962137E+01  6.534593789E+01  3.235606414E+02  1.720000000E+02  0.00000E+00  9.000E+00
      24     2     3     3     0     0  2.005597908E+02 -4.712333700E+00 -4.994621718E+02  5.432929822E+02  7.388076666E+01  0.00000E+00  9.000E+00
     -24     2     4     4     0     0 -2.055538316E+02  2.103273035E+01 -1.965289545E-01  2.218868953E+02  8.086409751E+01  0.00000E+00  9.000E+00
     -11     1     5     5     0     0  1.801159792E+02 -1.630620448E+01 -3.714084567E+02  4.131003510E+02  0.000000000E+00  0.00000E+00  9.000E+00
      12     1     5     5     0     0  2.044381154E+01  1.159387078E+01 -1.280537151E+02  1.301926312E+02  2.697398305E-06  0.00000E+00  9.000E+00
      13     1     6     6     0     0 -2.018768858E+02  3.709596856E+01  1.970340261E+00  2.052663395E+02  3.714486191E-06  0.00000E+00  9.000E+00
     -14     1     6     6     0     0 -3.676945766E+00 -1.606323821E+01 -2.166869216E+00  1.662055577E+01  2.795705652E-07  0.00000E+00  9.000E+00
       5     1     3     3   502     0  5.002693973E+01  4.626793303E+01 -4.549037289E+01  8.206919551E+01  4.750000000E+00  0.00000E+00  9.000E+00
      -5     1     4     4     0   504 -5.897260359E+01 -5.041235172E+01  6.554246685E+01  1.016737461E+02  4.750000000E+00  0.00000E+00  9.000E+00
      21     1     1     2   504   511  1.393970462E+01 -1.217597796E+01  3.535702766E+01  3.990851049E+01  4.768371582E-07  0.00000E+00  9.000E+00
</event>
<event>
     13  10001  1.00000E+00  6.02475E+00 -1.00000E+00  2.33575E-01
      21    -1     0     0   512   503  0.000000000E+00  0.000000000E+00  1.319370990E+03  1.319370990E+03  0.000000000E+00  0.00000E+00  9.000E+00
      21    -1     0     0   503   504  0.000000000E+00  0.000000000E+00 -8.242105753E+01  8.242105753E+01  0.000000000E+00  0.00000E+00  9.000E+00
       6     2     1     2   502     0  9.442490784E+00 -5.611588756E+00  1.388494705E+02  2.213228999E+02  1.720000000E+02  0.00000E+00  9.000E+00
      -6     2     1     2     0   504 -1.428965855E+01  9.189657000E+00  1.402018072E+02  2.225515466E+02  1.720000000E+02  0.00000E+00  9.000E+00
      24     2     3     3     0     0  4.708904211E+01 -3.743822171E+01  1.410740687E+02  1.717476164E+02  7.730687260E+01  0.00000E+00  9.000E+00
     -24     2     4     4     0     0  6.216141768E-01 -5.952076808E+01  1.001352522E+02  1.414876218E+02  8.030298969E+01  0.00000E+00  9.000E+00
     -11     1     5     5     0     0  6.272052122E+01 -8.626167398E+00  1.079532225E+02  1.251486028E+02  0.000000000E+00  0.00000E+00  9.000E+00
      12     1     5     5     0     0 -1.563147911E+01 -2.881205431E+01  3.312084625E+01  4.659901361E+01  0.000000000E+00  0.00000E+00  9.000E+00
      13     1     6     6     0     0  2.419566747E+01 -2.173350245E+00  6.682291342E+01  7.110172666E+01  9.536743164E-07  0.00000E+00  9.000E+00
     -14     1     6     6     0     0 -2.357405330E+01 -5.734741783E+01  3.331233881E+01  7.038589516E+01  1.261592536E-06  0.00000E+00  9.000E+00
       5     1     3     3   502     0 -3.764655133E+01  3.182663295E+01 -2.224598249E+00  4.957528345E+01  4.750000000E+00  0.00000E+00  9.000E+00
      -5     1     4     4     0   504 -1.491127272E+01  6.871042508E+01  4.006655501E+01  8.106392477E+01  4.750000000E+00  0.00000E+00  9.000E+00
      21     1     1     2   512   502  4.847167762E+00 -3.578068243E+00  9.578986550E+02  9.579176013E+02  1.868812365E-05  0.00000E+00  9.000E+00
</event>
<event>
     13  10001  1.00000E+00  3.19857E+01 -1.00000E+00  1.54742E-01
      21    -1     0     0   511   503  0.000000000E+00  0.000000000E+00  1.440952359E+02  1.440952359E+02  0.000000000E+00  0.00000E+00  9.000E+00
      21    -1     0     0   503   504  0.000000000E+00  0.000000000E+00 -9.297359467E+02  9.297359467E+02  0.000000000E+00  0.00000E+00  9.000E+00
       6     2     1     2   502     0 -1.595389401E+02 -6.622981032E+01 -6.455969781E+02  6.900858782E+02  1.720000000E+02  0.00000E+00  9.000E+00
      -6     2     1     2     0   504  1.753701418E+02  9.402298449E+01 -1.899714698E+02  3.244505626E+02  1.720000000E+02  0.00000E+00  9.000E+00
      24     2     3     3     0     0 -3.308663489E+01 -1.696316720E+01 -3.968822964E+02  4.067151969E+02  8.074168544E+01  0.00000E+00  9.000E+00
     -24     2     4     4     0     0  4.137602783E+01  1.918132752E+01 -1.935691603E+01  9.491279960E+01  8.095585418E+01  0.00000E+00  9.000E+00
     -11     1     5     5     0     0  1.130588873E+01 -1.968903341E+01 -2.908217014E+02  2.917066045E+02  0.000000000E+00  0.00000E+00  9.000E+00
      12     1     5     5     0     0 -4.439252362E+01  2.725866215E+00 -1.060605950E+02  1.150085924E+02  1.907348633E-06  0.00000E+00  9.000E+00
      13     1     6     6     0     0  5.061573008E+01  3.675943127E+01  5.843733973E+00  6.282799651E+01  1.203954809E-06  0.00000E+00  9.000E+00
     -14     1     6     6     0     0 -9.239702250E+00 -1.757810375E+01 -2.520065001E+01  3.208480309E+01  3.371747881E-07  0.00000E+00  9.000E+00
       5     1     3     3   502     0 -1.264523053E+02 -4.926664312E+01 -2.487146818E+02  2.833706814E+02  4.750000000E+00  0.00000E+00  9.000E+00
      -5     1     4     4     0   504  1.339941140E+02  7.484165697E+01 -1.706145537E+02  2.295377630E+02  4.750000000E+00  0.00000E+00  9.000E+00
      21     1     1     2   511   502 -1.583120165E+01 -2.779317417E+01  4.992773710E+01  5.929474182E+01  6.743495762E-07  0.00000E+00  9.000E+00
</event>
<event>
     13  10001  1.00000E+00  7.28387E+01 -1.00000E+00  1.33008E-01
      21    -1     0     0   502   503  0.000000000E+00  0.000000000E+00  1.117714277E+03  1.117714277E+03  0.000000000E+00  0.00000E+00  9.000E+00
      21    -1     0     0   503   512  0.000000000E+00  0.000000000E+00 -8.670166598E+01  8.670166598E+01  0.000000000E+00  0.00000E+00  9.000E+00
       6     2     1     2   502     0  1.110354601E+01 -1.339027248E+02  1.726541655E+02  2.782924529E+02  1.720000000E+02  0.00000E+00  9.000E+00
      -6     2     1     2     0   504 -2.187811521E+01  6.186537332E+01  8.262708053E+02  8.465302240E+02  1.720000000E+02  0.00000E+00  9.000E+00
      24     2     3     3     0     0  2.659951628E-01 -7.763406133E+01  1.555633938E+01  1.110025713E+02  7.779751221E+01  0.00000E+00  9.000E+00
     -24     2     4     4     0     0  2.231590966E+01  6.810437352E+01  7.419219259E+02  7.509826812E+02  9.160042514E+01  0.00000E+00  9.000E+00
     -11     1     5     5     0     0  9.784073021E-01 -2.874953141E+00  3.388931141E+01  3.402510932E+01  6.743495762E-07  0.00000E+00  9.000E+00
      12     1     5     5     0     0 -7.124121394E-01 -7.475910819E+01 -1.833297203E+01  7.697746197E+01  3.337860107E-06  0.00000E+00  9.000E+00
      13     1     6     6     0     0 -1.261894837E+00 -1.722291666E+01  2.875119722E+02  2.880301293E+02  7.629394531E-06  0.00000E+00  9.000E+00
     -14     1     6     6     0     0  2.357780450E+01  8.532729019E+01  4.544099536E+02  4.629525519E+02  7.629394531E-06  0.00000E+00  9.000E+00
       5     1     3     3   502     0  1.083755085E+01 -5.626866352E+01  1.570978261E+02  1.672898816E+02  4.750000000E+00  0.00000E+00  9.000E+00
      -5     1     4     4     0   504 -4.419402488E+01 -6.239000202E+00  8.434887947E+01  9.554754276E+01  4.750000000E+00  0.00000E+00  9.000E+00
      21     1     1     2   504   512  1.077456920E+01  7.203735153E+01  3.208764009E+01  7.959326607E+01  6.743495762E-07  0.00000E+00  9.000E+00
</event>
<event>
     13  10001  1.00000E+00  1.74237E+01 -1.00000E+00  1.76169E-01
       1    -1     0     0   503     0  0.000000000E+00  0.000000000E+00  8.450826048E+02  8.450826048E+02  0.000000000E+00  0.00000E+00  9.000E+00
      21    -1     0     0   502   503  0.000000000E+00  0.000000000E+00 -6.204618892E+01  6.204618892E+01  0.000000000E+00  0.00000E+00  9.000E+00
       6     2     1     2   502     0 -5.628034011E+01  3.499134999E+01  2.721200510E+02  3.286718628E+02  1.720000000E+02  0.00000E+00  9.000E+00
      -6     2     1     2     0   504  3.983286412E+01 -4.074178970E+01  2.113617476E+02  2.783960109E+02  1.720000000E+02  0.00000E+00  9.000E+00
      24     2     3     3     0     0  1.308403694E+01 -1.835155053E+01  1.945396834E+02  2.116327335E+02  8.021691889E+01  0.00000E+00  9.000E+00
     -24     2     4     4     0     0 -2.096782963E+01  2.999613000E+01  1.174947798E+02  1.459794417E+02  7.852105712E+01  0.00000E+00  9.000E+00
     -11     1     5     5     0     0  3.079016629E+00  2.381701656E+01  1.843915567E+01  3.027760036E+01  1.066240300E-06  0.00000E+00  9.000E+00
      12     1     5     5     0     0  1.000502031E+01 -4.216856709E+01  1.761005277E+02  1.813551332E+02  0.000000000E+00  0.00000E+00  9.000E+00
      13     1     6     6     0     0 -9.923310487E+00 -2.622988451E+01  2.740638423E+01  3.921210055E+01  8.259061849E-07  0.00000E+00  9.000E+00
     -14     1     6     6     0     0 -1.104451915E+01  5.622601451E+01  9.008839561E+01  1.067673411E+02  0.000000000E+00  0.00000E+00  9.000E+00
       5     1     3     3   502     0 -6.936437705E+01  5.334290052E+01  7.758036761E+01  1.170391293E+02  4.750000000E+00  0.00000E+00  9.000E+00
      -5     1     4     4     0   504  6.080069376E+01 -7.073791970E+01  9.386696780E+01  1.324165692E+02  4.750000000E+00  0.00000E+00  9.000E+00
       1     1     1     2   504     0  1.644747599E+01  5.750439706E+00  2.995546173E+02  3.000609200E+02  5.394796609E-06  0.00000E+00  9.000E+00
</event>
<event>
     13  10001  1.00000E+00  7.24674E+00 -1.00000E+00  2.20923E-01
       1    -1     0     0   511     0  0.000000000E+00  0.000000000E+00  4.003810040E+02  4.003810040E+02  0.000000000E+00  0.00000E+00  9.000E+00
      -1    -1     0     0     0   512  0.000000000E+00  0.000000000E+00 -1.061074496E+02  1.061074496E+02  0.000000000E+00  0.00000E+00  9.000E+00
       6     2     1     2   502     0 -2.381607682E+01 -2.052370436E+00  3.608029234E+01  1.773617919E+02  1.720000000E+02  0.00000E+00  9.000E+00
      -6     2     1     2     0   512  2.976779606E+01  6.186648890E+00  1.807831524E+02  2.513780907E+02  1.720000000E+02  0.00000E+00  9.000E+00
      24     2     3     3     0     0 -8.212497711E+01  1.752428583E+00  2.170768178E+01  1.170000592E+02  8.043760018E+01  0.00000E+00  9.000E+00
     -24     2     4     4     0     0  6.181462352E+01 -3.016108093E+01  6.231247024E+01  1.232920976E+02  8.116254611E+01  0.00000E+00  9.000E+00
     -11     1     5     5     0     0  1.105389307E+01 -1.338032504E+01  1.397757923E+01  2.228439748E+01  7.539457465E-07  0.00000E+00  9.000E+00
      12     1     5     5     0     0 -9.317887018E+01  1.513275362E+01  7.730102551E+00  9.471566167E+01  2.618537263E-06  0.00000E+00  9.000E+00
      13     1     6     6     0     0  3.235987567E+01  1.227242529E+01 -8.504121991E+00  3.563837912E+01  9.536743164E-07  0.00000E+00  9.000E+00
     -14     1     6     6     0     0  2.945474785E+01 -4.243350622E+01  7.081659223E+01  8.765371844E+01  9.536743164E-07  0.00000E+00  9.000E+00
       5     1     3     3   502     0  5.830890029E+01 -3.804799019E+00  1.437261055E+01  6.036173277E+01  4.750000000E+00  0.00000E+00  9.000E+00
      -5     1     4     4     0   512 -3.204682746E+01  3.634772982E+01  1.184706822E+02  1.280859932E+02  4.750000000E+00  0.00000E+00  9.000E+00
      21     1     1     2   511   502 -5.951719237E+00 -4.134278454E+00  7.741010960E+01  7.774857098E+01  0.000000000E+00  0.00000E+00  9.000E+00
</event>
<event>
     13  10001  1.00000E+00  2.12844E+01 -1.00000E+00  1.68462E-01
       2    -1     0     0   502     0  0.000000000E+00  0.000000000E+00  8.456336023E+02  8.456336023E+02  0.000000000E+00  0.00000E+00  9.000E+00
      21    -1     0     0   503   504  0.000000000E+00  0.000000000E+00 -1.680603283E+02  1.680603283E+02  0.000000000E+00  0.00000E+00  9.000E+00
       6     2     1     2   502     0  1.733165252E+02 -2.128633319E+01  1.342332292E+02  2.794535484E+02  1.720000000E+02  0.00000E+00  9.000E+00
      -6     2     1     2     0   504 -1.860168133E+02  4.206321613E+00  7.337702730E+01  2.637956332E+02  1.720000000E+02  0.00000E+00  9.000E+00
      24     2     3     3     0     0  1.373808144E+02 -2.529885915E+01  1.654685519E+02  2.314360146E+02  8.166557877E+01  0.00000E+00  9.000E+00
     -24     2     4     4     0     0 -1.062885515E+02 -6.232377827E+01  2.409256613E+01  1.487548990E+02  7.978758496E+01  0.00000E+00  9.000E+00
     -11     1     5     5     0     0  1.391530058E+02 -4.089160754E+01  1.564498490E+02  2.133359741E+02  2.697398305E-06  0.00000E+00  9.000E+00
      12     1     5     5     0     0 -1.772191389E+00  1.559274839E+01  9.018702825E+00  1.810004048E+01  0.000000000E+00  0.00000E+00  9.000E+00
      13     1     6     6     0     0 -2.770037028E+01  1.393445809E+01 -1.230353382E+01  3.335950510E+01  5.591411304E-07  0.00000E+00  9.000E+00
     -14     1     6     6     0     0 -7.858818121E+01 -7.625823636E+01  3.639609995E+01  1.153953939E+02  2.780414531E-06  0.00000E+00  9.000E+00
       5     1     3     3   502     0  3.593571081E+01  4.012525957E+00 -3.123532262E+01  4.801753383E+01  4.750000000E+00  0.00000E+00  9.000E+00
      -5     1     4     4     0   504 -7.972826182E+01  6.653009988E+01  4.928446117E+01  1.150407342E+02  4.750000000E+00  0.00000E+00  9.000E+00
       2     1     1     2   503     0  1.270028807E+01  1.708001158E+01  4.699630174E+02  4.704447490E+02  7.629394531E-06  0.00000E+00  9.000E+00
</event>
<event>
     13  10001  1.00000E+00  3.08183E+02 -1.00000E+00  1.06921E-01
      21    -1     0     0   502   503  0.000000000E+00  0.000000000E+00  1.261431043E+03  1.261431043E+03  0.000000000E+00  0.00000E+00  9.000E+00
      21    -1     0     0   511   504  0.000000000E+00  0.000000000E+00 -1.980728189E+02  1.980728189E+02  0.000000000E+00  0.00000E+00  9.000E+00
       6     2     1     2   502     0 -2.333240718E+02  1.292563151E+02  2.220376448E+02  3.873396871E+02  1.720000000E+02  0.00000E+00  9.000E+00
      -6     2     1     2     0   504 -5.242318470E+01 -2.446904695E+02  6.273792741E+02  6.970009826E+02  1.720000000E+02  0.00000E+00  9.000E+00
      24     2     3     3     0     0 -2.301152361E+02  1.538333701E+02  1.849151656E+02  3.424512785E+02  8.038365516E+01  0.00000E+00  9.000E+00
     -24     2     4     4     0     0  3.601522631E+01 -8.218118154E+01  1.794598472E+02  2.123516282E+02  6.954519477E+01  0.00000E+00  9.000E+00
     -11     1     5     5     0     0 -8.988840099E+01  8.763697262E+01  4.430896643E+01  1.331294412E+02  3.015782986E-06  0.00000E+00  9.000E+00
      12     1     5     5     0     0 -1.402268352E+02  6.619639750E+01  1.406061992E+02  2.093218373E+02  5.046370146E-06  0.00000E+00  9.000E+00
      13     1     6     6     0     0  2.549198951E+01 -2.718173906E+01  1.785839130E+01  4.132324537E+01  1.011524364E-06  0.00000E+00  9.000E+00
     -14     1     6     6     0     0  1.052323680E+01 -5.499944248E+01  1.616014559E+02  1.710283828E+02  3.303624740E-06  0.00000E+00  9.000E+00
       5     1     3     3   502     0 -3.208835679E+00 -2.457705505E+01  3.712247923E+01  4.488840859E+01  4.750000000E+00  0.00000E+00  9.000E+00
      -5     1     4     4     0   504 -8.843841101E+01 -1.625092879E+02  4.479194269E+02  4.846493544E+02  4.750000000E+00  0.00000E+00  9.000E+00
      21     1     1     2   511   503  2.857472565E+02  1.154341544E+02  2.139413049E+02  3.751631919E+02  2.697398305E-06  0.00000E+00  9.000E+00
</event>
<event>
     13  10001  1.00000E+00  2.81217E+02 -1.00000E+00  1.08263E-01
      21    -1     0     0   503   512  0.000000000E+00  0.000000000E+00  8.322479941E+02  8.322479941E+02  0.000000000E+00  0.00000E+00  9.000E+00
      21    -1     0     0   502   503  0.000000000E+00  0.000000000E+00 -2.925817746E+02  2.925817746E+02  0.000000000E+00  0.00000E+00  9.000E+00
       6     2     1     2   502     0 -1.641190345E+01  2.140049572E+01 -5.347536171E+01  1.821289271E+02  1.720000000E+02  0.00000E+00  9.000E+00
      -6     2     1     2     0   504 -1.247472743E+02  2.218213071E+02  2.427793671E+01  3.081233405E+02  1.720000000E+02  0.00000E+00  9.000E+00
      24     2     3     3     0     0 -5.429591862E+01  3.493531968E+01 -8.360379490E+01  1.316445231E+02  7.856311221E+01  0.00000E+00  9.000E+00
     -24     2     4     4     0     0 -9.717613250E-02  5.448350611E+01  1.979931963E+01  9.935982084E+01  8.069633857E+01  0.00000E+00  9.000E+00
     -11     1     5     5     0     0 -1.717081989E+01  5.396207687E+01 -3.116922028E+01  6.463948552E+01  1.011524364E-06  0.00000E+00  9.000E+00
      12     1     5     5     0     0 -3.712509873E+01 -1.902675719E+01 -5.243457462E+01  6.700503757E+01  1.507891493E-06  0.00000E+00  9.000E+00
      13     1     6     6     0     0 -1.575889983E+01  6.747772557E+01  3.124438331E+01  7.601182711E+01  1.305872339E-06  0.00000E+00  9.000E+00
     -14     1     6     6     0     0  1.566172369E+01 -1.299421946E+01 -1.144506368E+01  2.334799373E+01  5.057621821E-07  0.00000E+00  9.000E+00
       5     1     3     3   502     0  3.788401517E+01 -1.353482396E+01  3.012843319E+01  5.048440404E+01  4.750000000E+00  0.00000E+00  9.000E+00
      -5     1     4     4     0   504 -1.246500982E+02  1.673378010E+02  4.478617079E+00  2.087635196E+02  4.750000000E+00  0.00000E+00  9.000E+00
      21     1     1     2   504   512  1.411591778E+02 -2.432218028E+02  5.688636445E+02  6.345775011E+02  1.321449896E-05  0.00000E+00  9.000E+00
</event>
<event>
     13  10001  1.00000E+00  5.43359E+01 -1.00000E+00  1.39992E-01
      21    -1     0     0   511   503  0.000000000E+00  0.000000000E+00  1.331482699E+02  1.331482699E+02  0.000000000E+00  0.00000E+00  9.000E+00
      21    -1     0     0   503   504  0.000000000E+00  0.000000000E+00 -6.847588088E+02  6.847588088E+02  0.000000000E+00  0.00000E+00  9.000E+00
       6     2     1     2   502     0  9.588954076E+01 -1.835198576E+02 -1.537471988E+02  3.099944247E+02  1.720000000E+02  0.00000E+00  9.000E+00
      -6     2     1     2     0   504 -4.176909192E+01  1.883539082E+02 -3.526396521E+02  4.372191396E+02  1.720000000E+02  0.00000E+00  9.000E+00
      24     2     3     3     0     0 -1.331731415E+01 -5.663408900E+01 -7.748607586E+01  1.259714456E+02  8.049808858E+01  0.00000E+00  9.000E+00
     -24     2     4     4     0     0 -7.107776582E+01  1.105411136E+02 -3.033025119E+02  3.404175628E+02  8.136532883E+01  0.00000E+00  9.000E+00
     -11     1     5     5     0     0 -9.644944324E-02  1.285443185E+01 -4.738559553E+01  4.909827272E+01  6.743495762E-07  0.00000E+00  9.000E+00
      12     1     5     5     0     0 -1.322086470E+01 -6.948852086E+01 -3.010048033E+01  7.687317289E+01  1.581489940E-06  0.00000E+00  9.000E+00
      13     1     6     6     0     0 -6.343353734E+01  9.394390758E+01 -1.607422440E+02  1.966909770E+02  0.000000000E+00  0.00000E+00  9.000E+00
     -14     1     6     6     0     0 -7.644228475E+00  1.659720603E+01 -1.425602678E+02  1.437265857E+02  1.907348633E-06  0.00000E+00  9.000E+00
       5     1     3     3   502     0  1.092068549E+02 -1.268857686E+02 -7.626112294E+01  1.840229790E+02  4.750000000E+00  0.00000E+00  9.000E+00
      -5     1     4     4     0   504  2.930867389E+01  7.781279462E+01 -4.933714026E+01  9.680157685E+01  4.750000000E+00  0.00000E+00  9.000E+00
      21     1     1     2   511   502 -5.412044883E+01 -4.834050578E+00 -4.522368792E+01  7.069351438E+01  1.066240300E-06  0.00000E+00  9.000E+00
</event>
<event>
     13  10001  1.00000E+00  1.46301E+02 -1.00000E+00  1.18943E-01
      21    -1     0     0   503   504  0.000000000E+00  0.000000000E+00  5.722224157E+02  5.722224157E+02  0.000000000E+00  0.00000E+00  9.000E+00
       2    -1     0     0   502     0  0.000000000E+00  0.000000000E+00 -1.036154856E+03  1.036154856E+03  0.000000000E+00  0.00000E+00  9.000E+00
       6     2     1     2   502     0  4.829069849E+01  1.261700398E+02  8.800071474E+00  2.188888114E+02  1.720000000E+02  0.00000E+00  9.000E+00
      -6     2     1     2     0   504  1.952098036E+01  3.465956844E+00  4.359660953E+02  4.690879638E+02  1.720000000E+02  0.00000E+00  9.000E+00
      24     2     3     3     0     0  3.169334908E+01  1.378406820E+02 -3.828420896E+01  1.673993187E+02  8.094645923E+01  0.00000E+00  9.000E+00
     -24     2     4     4     0     0 -5.253490693E+01  2.282543353E+01  2.420634420E+02  2.612715985E+02  7.992009365E+01  0.00000E+00  9.000E+00
     -11     1     5     5     0     0 -1.543352566E+01  2.795433966E+01 -3.557359385E+01  4.780292250E+01  1.846782373E-06  0.00000E+00  9.000E+00
      12     1     5     5     0     0  4.712687474E+01  1.098863423E+02 -2.710615119E+00  1.195963962E+02  3.563839419E-06  0.00000E+00  9.000E+00
      13     1     6     6     0     0  1.025728631E+01  3.255442297E+01  7.072786999E+01  7.853301198E+01  1.651812370E-06  0.00000E+00  9.000E+00
     -14     1     6     6     0     0 -6.279219323E+01 -9.728989446E+00  1.713355720E+02  1.827385865E+02  3.814697266E-06  0.00000E+00  9.000E+00
       5     1     3     3   502     0  1.659734941E+01 -1.167064217E+01  4.708428044E+01  5.148949272E+01  4.750000000E+00  0.00000E+00  9.000E+00
      -5     1     4     4     0   504  7.205588728E+01 -1.935947668E+01  1.939026533E+02  2.078163653E+02  4.750000000E+00  0.00000E+00  9.000E+00
       2     1     1     2   503     0 -6.781167885E+01 -1.296359966E+02 -9.086986069E+02  9.204004963E+02  0.000000000E+00  0.00000E+00  9.000E+00
</event>
<event>
     13  10001  1.00000E+00  1.53343E+02 -1.00000E+00  1.18103E-01
      21    -1     0     0   511   512  0.000000000E+00  0.000000000E+00  3.272285171E+02  3.272285171E+02  0.000000000E+00  0.00000E+00  9.000E+00
       1    -1     0     0   502     0  0.000000000E+00  0.000000000E+00 -4.718025455E+02  4.718025455E+02  0.000000000E+00  0.00000E+00  9.000E+00
       6     2     1     2   502     0  1.613356560E+01  7.943170833E+01  2.232779549E+02  2.932690461E+02  1.720000000E+02  0.00000E+00  9.000E+00
      -6     2     1     2     0   512 -9.795180112E+00  7.378043035E+01 -2.495536548E+02  3.120905703E+02  1.720000000E+02  0.00000E+00  9.000E+00
      24     2     3     3     0     0 -4.952104109E+01  2.362213001E+01  1.515488812E+02  1.810511378E+02  8.247492092E+01  0.00000E+00  9.000E+00
     -24     2     4     4     0     0  5.598286921E+01  5.485872419E+01 -1.062016986E+02  1.531656554E+02  7.770042432E+01  0.00000E+00  9.000E+00
     -11     1     5     5     0     0 -2.139600815E+01  3.070215039E+01  1.470068192E+02  1.516951419E+02  3.303624740E-06  0.00000E+00  9.000E+00
      12     1     5     5     0     0 -2.812503294E+01 -7.080020389E+00  4.542062003E+00  2.935599588E+01  9.039491944E-07  0.00000E+00  9.000E+00
      13     1     6     6     0     0  7.147866792E+00  1.864913015E+01 -8.721875898E+01  8.947622016E+01  2.336015456E-06  0.00000E+00  9.000E+00
     -14     1     6     6     0     0  4.883500242E+01  3.620959405E+01 -1.898293960E+01  6.368943522E+01  5.331201500E-07  0.00000E+00  9.000E+00
       5     1     3     3   502     0  6.565460669E+01  5.580957832E+01  7.172907375E+01  1.122179083E+02  4.750000000E+00  0.00000E+00  9.000E+00
      -5     1     4     4     0   512 -6.577804933E+01  1.892170615E+01 -1.433519562E+02  1.589249150E+02  4.750000000E+00  0.00000E+00  9.000E+00
       1     1     1     2   511     0 -6.338385488E+00 -1.532121387E+02 -1.182983285E+02  1.936714463E+02  0.000000000E+00  0.00000E+00  9.000E+00
</event>
<event>
     13  10001  1.00000E+00  1.64042E+01 -1.00000E+00  1.78637E-01
      21    -1     0     0   502   512  0.000000000E+00  0.000000000E+00  1.211797443E+02  1.211797443E+02  0.000000000E+00  0.00000E+00  9.000E+00
      21    -1     0     0   503   504  0.000000000E+00  0.000000000E+00 -7.376415100E+02  7.376415100E+02  0.000000000E+00  0.00000E+00  9.000E+00
       6     2     1     2   502     0  3.033383958E+01  8.706204768E+00 -3.556230680E+02  3.962924505E+02  1.720000000E+02  0.00000E+00  9.000E+00
      -6     2     1     2     0   504 -3.268940162E+01 -2.494039717E+01 -3.391657935E+02  3.825023606E+02  1.720000000E+02  0.00000E+00  9.000E+00
      24     2     3     3     0     0  7.883754709E+01 -1.721790231E+01 -2.805786316E+02  3.031318424E+02  8.156427136E+01  0.00000E+00  9.000E+00
     -24     2     4     4     0     0 -4.164483931E+01  5.950120574E+00 -3.396811890E+02  3.499869476E+02  7.306063779E+01  0.00000E+00  9.000E+00
     -11     1     5     5     0     0  3.474186143E+01  3.092133465E+01 -8.426553661E+01  9.624867029E+01  2.523185073E-06  0.00000E+00  9.000E+00
      12     1     5     5     0     0  4.409568566E+01 -4.813923696E+01 -1.963130950E+02  2.068831721E+02  2.697398305E-06  0.00000E+00  9.000E+00
      13     1     6     6     0     0  1.076427222E+01 -1.073458722E+01 -1.884945716E+02  1.891065955E+02  2.697398305E-06  0.00000E+00  9.000E+00
     -14     1     6     6     0     0 -5.240911153E+01  1.668470779E+01 -1.511866173E+02  1.608803522E+02  1.907348633E-06  0.00000E+00  9.000E+00
       5     1     3     3   502     0 -4.850370751E+01  2.592410708E+01 -7.504443639E+01  9.316060811E+01  4.750000000E+00  0.00000E+00  9.000E+00
      -5     1     4     4     0   504  8.955437691E+00 -3.089051774E+01  5.153954352E-01  3.251541301E+01  4.750000000E+00  0.00000E+00  9.000E+00
      21     1     1     2   503   512  2.355562043E+00  1.623419240E+01  7.832709582E+01  8.002644323E+01  3.303624740E-06  0.00000E+00  9.000E+00
</event>
<event>
     13  10001  1.00000E+00  1.51264E+02 -1.00000E+00  1.18346E-01
      21    -1     0     0   503   504  0.000000000E+00  0.000000000E+00  9.738522134E+02  9.738522134E+02  0.000000000E+00  0.00000E+00  9.000E+00
      21    -1     0     0   511   503  0.000000000E+00  0.000000000E+00 -8.318613055E+01  8.318613055E+01  0.000000000E+00  0.00000E+00  9.000E+00
       6     2     1     2   502     0  9.205310744E+01 -3.475420603E+01  3.926620481E+02  4.398285046E+02  1.720000000E+02  0.00000E+00  9.000E+00
      -6     2     1     2     0   504  4.051683922E+01  1.075972301E+02  3.434596304E+02  4.009579727E+02  1.720000000E+02  0.00000E+00  9.000E+00
      24     2     3     3     0     0  7.023038874E+01  3.429684373E+01  3.106707909E+02  3.303323527E+02  8.058872077E+01  0.00000E+00  9.000E+00
     -24     2     4     4     0     0 -1.620416210E+01  8.716797121E+01  3.089895799E+02  3.313492557E+02  8.035507877E+01  0.00000E+00  9.000E+00
     -11     1     5     5     0     0  5.736135095E+01  7.365745394E+00  8.568633088E+01  1.033766225E+02  1.651812370E-06  0.00000E+00  9.000E+00
      12     1     5     5     0     0  1.286903778E+01  2.693109834E+01  2.249844601E+02  2.269557302E+02  2.697398305E-06  0.00000E+00  9.000E+00
      13     1     6     6     0     0  2.801466601E+01  1.552712548E+01  1.245731904E+02  1.286250088E+02  1.907348633E-06  0.00000E+00  9.000E+00
     -14     1     6     6     0     0 -4.421882811E+01  7.164084573E+01  1.844163895E+02  2.027242468E+02  2.697398305E-06  0.00000E+00  9.000E+00
       5     1     3     3   502     0  2.182271871E+01 -6.905104976E+01  8.199125720E+01  1.094961519E+02  4.750000000E+00  0.00000E+00  9.000E+00
      -5     1     4     4     0   504  5.672100132E+01  2.042925885E+01  3.447005054E+01  6.960871707E+01  4.750000000E+00  0.00000E+00  9.000E+00
      21     1     1     2   511   502 -1.325699467E+02 -7.284302404E+01  1.545444043E+02  2.162518666E+02  3.303624740E-06  0.00000E+00  9.000E+00
</event>
<event>
     13  10001  1.00000E+00  1.87147E+01 -1.00000E+00  1.73334E-01
      21    -1     0     0   512   504  0.000000000E+00  0.000000000E+00  1.845232952E+02  1.845232952E+02  0.000000000E+00  0.00000E+00  9.000E+00
      21    -1     0     0   502   503  0.000000000E+00  0.000000000E+00 -3.141289466E+02  3.141289466E+02  0.000000000E+00  0.00000E+00  9.000E+00
       6     2     1     2   502     0 -2.973100328E+01 -4.137745331E+01  8.510814742E+01  1.985533252E+02  1.720000000E+02  0.00000E+00  9.000E+00
      -6     2     1     2     0   504  3.527718064E+01  5.925140686E+01 -2.113511912E+02  2.810845686E+02  1.720000000E+02  0.00000E+00  9.000E+00
      24     2     3     3     0     0 -6.751910368E+01 -6.506086461E+00  8.783252349E+00  1.064012506E+02  8.150412305E+01  0.00000E+00  9.000E+00
     -24     2     4     4     0     0  6.206395646E+01  3.145851668E+01 -2.188598005E+02  2.414750014E+02  7.462567283E+01  0.00000E+00  9.000E+00
     -11     1     5     5     0     0  3.243865125E+00  1.807269282E+01 -1.907724179E+01  2.647802940E+01  8.596304120E-07  0.00000E+00  9.000E+00
      12     1     5     5     0     0 -7.076296881E+01 -2.457877928E+01  2.786049414E+01  7.992322115E+01  1.305872339E-06  0.00000E+00  9.000E+00
      13     1     6     6     0     0  9.303628195E-01 -1.307420072E+01 -9.819184196E+01  9.906279891E+01  0.000000000E+00  0.00000E+00  9.000E+00
     -14     1     6     6     0     0  6.113359365E+01  4.453271740E+01 -1.206679585E+02  1.424122024E+02  2.697398305E-06  0.00000E+00  9.000E+00
       5     1     3     3   502     0  3.778810040E+01 -3.487136685E+01  7.632489507E+01  9.215207467E+01  4.750000000E+00  0.00000E+00  9.000E+00
      -5     1     4     4     0   504 -2.678677583E+01  2.779289018E+01  7.508609303E+00  3.960956724E+01  4.750000000E+00  0.00000E+00  9.000E+00
      21     1     1     2   512   503 -5.546177356E+00 -1.787395355E+01 -3.362607602E+00  1.901434797E+01  1.788139343E-07  0.00000E+00  9.000E+00
</event>
<event>
     13  10001  1.00000E+00  4.49131E+01 -1.00000E+00  1.44949E-01
      21    -1     0     0   511   504  0.000000000E+00  0.000000000E+00  4.795900815E+02  4.795900815E+02  0.000000000E+00  0.00000E+00  9.000E+00
      21    -1     0     0   502   503  0.000000000E+00  0.000000000E+00 -2.512325897E+02  2.512325897E+02  0.000000000E+00  0.00000E+00  9.000E+00
       6     2     1     2   502     0 -1.744153207E+01 -3.572804625E+01  3.431577981E+02  3.859041004E+02  1.720000000E+02  0.00000E+00  9.000E+00
      -6     2     1     2     0   504  1.359952532E+01 -9.020422235E+00 -1.903249544E+02  2.570484456E+02  1.720000000E+02  0.00000E+00  9.000E+00
      24     2     3     3     0     0  6.179250070E+00  4.426975687E+01  1.630816508E+02  1.873906974E+02  8.075675911E+01  0.00000E+00  9.000E+00
     -24     2     4     4     0     0 -2.756203913E+01  3.934549458E+01 -6.317894932E+01  1.148436447E+02  8.300451275E+01  0.00000E+00  9.000E+00
     -11     1     5     5     0     0 -1.684340543E+01 -1.868889532E+01  4.057190689E+01  4.773944641E+01  1.261592536E-06  0.00000E+00  9.000E+00
      12     1     5     5     0     0  2.302265550E+01  6.295865219E+01  1.225097439E+02  1.396512510E+02  1.348699152E-06  0.00000E+00  9.000E+00
      13     1     6     6     0     0 -2.045219563E+01 -2.278540253E+01 -3.424913621E+01  4.593985422E+01  0.000000000E+00  0.00000E+00  9.000E+00
     -14     1     6     6     0     0 -7.109843494E+00  6.213089711E+01 -2.892981311E+01  6.890379044E+01  2.105655877E-06  0.00000E+00  9.000E+00
       5     1     3     3   502     0 -2.362078214E+01 -7.999780312E+01  1.800761473E+02  1.985134030E+02  4.750000000E+00  0.00000E+00  9.000E+00
      -5     1     4     4     0   504  4.116156445E+01 -4.836591681E+01 -1.271460051E+02  1.422048009E+02  4.750000000E+00  0.00000E+00  9.000E+00
      21     1     1     2   511   503  3.842006744E+00  4.474846849E+01  7.552464811E+01  8.787012530E+01  0.000000000E+00  0.00000E+00  9.000E+00
</event>
<event>
     13  10001  1.00000E+00  9.65650E+00 -1.00000E+00  2.03867E-01
      -1    -1     0     0     0   512  0.000000000E+00  0.000000000E+00  2.048716741E+02  2.048716741E+02  0.000000000E+00  0.00000E+00  9.000E+00
       1    -1     0     0   513     0  0.000000000E+00  0.000000000E+00 -1.613433037E+02  1.613433037E+02  0.000000000E+00  0.00000E+00  9.000E+00
       6     2     1     2   502     0  8.371766474E+00  3.180238793E+01  3.094408757E+01  1.778286110E+02  1.720000000E+02  0.00000E+00  9.000E+00
      -6     2     1     2     0   512 -7.636532014E+00 -4.143085418E+01  1.673979055E+01  1.778736993E+02  1.720000000E+02  0.00000E+00  9.000E+00
      24     2     3     3     0     0 -4.820862365E+01 -2.076061058E+01  2.250165064E+00  9.530520196E+01  7.951694117E+01  0.00000E+00  9.000E+00
     -24     2     4     4     0     0 -4.411714541E+00 -9.468785256E+01  4.947603530E+00  1.230254951E+02  7.826583556E+01  0.00000E+00  9.000E+00
     -11     1     5     5     0     0 -5.435562143E+01 -2.423648509E-01  2.854101135E+01  6.139366133E+01  1.469710828E-06  0.00000E+00  9.000E+00
      12     1     5     5     0     0  6.146997787E+00 -2.051824573E+01 -2.629084629E+01  3.391154063E+01  9.536743164E-07  0.00000E+00  9.000E+00
      13     1     6     6     0     0  1.600119713E+01  4.386813032E+00  1.366546603E+01  2.149482263E+01  5.331201500E-07  0.00000E+00  9.000E+00
     -14     1     6     6     0     0 -2.041291167E+01 -9.907466559E+01 -8.717862498E+00  1.015306725E+02  2.537226278E-06  0.00000E+00  9.000E+00
       5     1     3     3   502     0  5.658039012E+01  5.256299851E+01  2.869392251E+01  8.252340909E+01  4.750000000E+00  0.00000E+00  9.000E+00
      -5     1     4     4     0   512 -3.224817473E+00  5.325699838E+01  1.179218702E+01  5.484820416E+01  4.750000000E+00  0.00000E+00  9.000E+00
      21     1     1     2   513   502 -7.352344605E-01  9.628466246E+00 -4.155507723E+00  1.051266743E+01  1.332800375E-07  0.00000E+00  9.000E+00
</event>
<event>
     13  10001  1.00000E+00  5.05887E+01 -1.00000E+00  1.41810E-01
      21    -1     0     0   503   511  0.000000000E+00  0.000000000E+00  4.443865062E+02  4.443865062E+02  0.000000000E+00  0.00000E+00  9.000E+00
      21    -1     0     0   502   503  0.000000000E+00  0.000000000E+00 -2.977891776E+02  2.977891776E+02  0.000000000E+00  0.00000E+00  9.000E+00
       6     2     1     2   502     0  1.072108950E+01 -1.407102213E+02  8.407340986E+01  2.378374369E+02  1.720000000E+02  0.00000E+00  9.000E+00
      -6     2     1     2     0   504  1.310516512E+01  1.853367061E+02 -1.442954245E+02  2.914217039E+02  1.720000000E+02  0.00000E+00  9.000E+00
      24     2     3     3     0     0  2.493270222E+01 -1.649069523E+02  9.052274003E+01  2.086551119E+02  8.675624870E+01  0.00000E+00  9.000E+00
     -24     2     4     4     0     0  6.604126464E+01  9.947018688E+01 -1.145746066E+02  1.861545235E+02  8.526663721E+01  0.00000E+00  9.000E+00
     -11     1     5     5     0     0  1.835052681E+01 -8.764629025E+01  1.111311007E-01  8.954678319E+01  1.203167845E-06  0.00000E+00  9.000E+00
      12     1     5     5     0     0  6.582175407E+00 -7.726066210E+01  9.041160893E+01  1.191083287E+02  1.907348633E-06  0.00000E+00  9.000E+00
      13     1     6     6     0     0  5.290884102E+01  9.569888417E+01 -5.015944658E+01  1.203062424E+02  9.536743164E-07  0.00000E+00  9.000E+00
     -14     1     6     6     0     0  1.313242362E+01  3.771302709E+00 -6.441516004E+01  6.584828105E+01  1.348699152E-06  0.00000E+00  9.000E+00
       5     1     3     3   502     0 -1.421161272E+01  2.419673107E+01 -6.449330173E+00  2.918232496E+01  4.750000000E+00  0.00000E+00  9.000E+00
      -5     1     4     4     0   504 -5.293609952E+01  8.586651926E+01 -2.972081785E+01  1.052671804E+02  4.750000000E+00  0.00000E+00  9.000E+00
      21     1     1     2   504   511 -2.382625462E+01 -4.462648486E+01  2.068193433E+02  2.129165430E+02  0.000000000E+00  0.00000E+00  9.000E+00
</event>
<event>
     13  10001  1.00000E+00  9.54419E+01 -1.00000E+00  1.27171E-01
      21    -1     0     0   503   504  0.000000000E+00  0.000000000E+00  2.276454648E+02  2.276454648E+02  0.000000000E+00  0.00000E+00  9.000E+00
      21    -1     0     0   512   503  0.000000000E+00  0.000000000E+00 -3.407609118E+02  3.407609118E+02  0.000000000E+00  0.00000E+00  9.000E+00
       6     2     1     2   502     0 -3.202384382E+01 -3.038987734E-01  1.044161882E+02  2.037458203E+02  1.720000000E+02  0.00000E+00  9.000E+00
      -6     2     1     2     0   504 -4.198271407E+01 -5.996378346E+01 -9.602009987E+01  2.101477175E+02  1.720000000E+02  0.00000E+00  9.000E+00
      24     2     3     3     0     0 -6.264800396E+01  2.682637273E+01  1.200501909E+02  1.596904533E+02  8.027805353E+01  0.00000E+00  9.000E+00
     -24     2     4     4     0     0  2.003566568E+01 -1.866197877E+00 -1.486947441E+00  8.294438313E+01  8.045277550E+01  0.00000E+00  9.000E+00
     -11     1     5     5     0     0 -5.988165734E+01  1.102432605E+01  2.936857465E+01  6.760075316E+01  5.840038640E-07  0.00000E+00  9.000E+00
      12     1     5     5     0     0 -2.766346618E+00  1.580204668E+01  9.068161626E+01  9.208970018E+01  1.907348633E-06  0.00000E+00  9.000E+00
      13     1     6     6     0     0 -2.724132672E+00  3.565110257E+01  1.084456460E+01  3.736343927E+01  6.848052319E-07  0.00000E+00  9.000E+00
     -14     1     6     6     0     0  2.275979835E+01 -3.751730044E+01 -1.233151204E+01  4.558094385E+01  1.079486029E-06  0.00000E+00  9.000E+00
       5     1     3     3   502     0  3.062416013E+01 -2.713027150E+01 -1.563400271E+01  4.405536695E+01  4.750000000E+00  0.00000E+00  9.000E+00
      -5     1     4     4     0   504 -6.201837975E+01 -5.809758559E+01 -9.453315243E+01  1.272033344E+02  4.750000000E+00  0.00000E+00  9.000E+00
      21     1     1     2   512   502  7.400655789E+01  6.026768224E+01 -1.215115354E+02  1.545128388E+02  1.907348633E-06  0.00000E+00  9.000E+00
</event>
<event>
     13  10001  1.00000E+00  4.14586E+01 -1.00000E+00  1.47142E-01
      21    -1     0     0   503   511  0.000000000E+00  0.000000000E+00  8.916162816E+01  8.916162816E+01  0.000000000E+00  0.00000E+00  9.000E+00
      21    -1     0     0   502   503  0.000000000E+00  0.000000000E+00 -4.833765902E+02  4.833765902E+02  0.000000000E+00  0.00000E+00  9.000E+00
       6     2     1     2   502     0  6.528265908E+01  2.610347591E+00 -1.860477977E+02  2.616608922E+02  1.720000000E+02  0.00000E+00  9.000E+00
      -6     2     1     2     0   504 -2.663478918E+01  1.239486516E+01 -2.051333552E+02  2.693078872E+02  1.720000000E+02  0.00000E+00  9.000E+00
      24     2     3     3     0     0  6.464728154E-01  2.795793078E+01 -1.711197204E+02  1.904868342E+02  7.887465672E+01  0.00000E+00  9.000E+00
     -24     2     4     4     0     0 -2.641749751E+01  4.635495128E+01 -4.785481536E+01  1.083344848E+02  8.123799337E+01  0.00000E+00  9.000E+00
     -11     1     5     5     0     0 -6.256955207E+00 -2.243545671E+01 -1.890405572E+01  2.999770873E+01  2.384185791E-07  0.00000E+00  9.000E+00
      12     1     5     5     0     0  6.903428022E+00  5.039338749E+01 -1.522156646E+02  1.604891254E+02  3.814697266E-06  0.00000E+00  9.000E+00
      13     1     6     6     0     0  2.908910591E+01  2.237775353E+01 -1.683329950E+01  4.037697249E+01  4.768371582E-07  0.00000E+00  9.000E+00
     -14     1     6     6     0     0 -5.550660343E+01  2.397719775E+01 -3.102151587E+01  6.795751233E+01  2.158972058E-06  0.00000E+00  9.000E+00
       5     1     3     3   502     0  6.463618626E+01 -2.534758319E+01 -1.492807734E+01  7.117405806E+01  4.750000000E+00  0.00000E+00  9.000E+00
      -5     1     4     4     0   504 -2.172916606E-01 -3.396008612E+01 -1.572785399E+02  1.609734024E+02  4.750000000E+00  0.00000E+00  9.000E+00
      21     1     1     2   504   511 -3.864786990E+01 -1.500521275E+01 -3.033809131E+00  4.156943896E+01  4.129530925E-07  0.00000E+00  9.000E+00
</event>
<event>
     13  10001  1.00000E+00  1.34060E+02 -1.00000E+00  1.20536E-01
      21    -1     0     0   503   512  0.000000000E+00  0.000000000E+00  1.986393602E+02  1.986393602E+02  0.000000000E+00  0.00000E+00  9.000E+00
      21    -1     0     0   502   503  0.000000000E+00  0.000000000E+00 -3.773977766E+02  3.773977766E+02  0.000000000E+00  0.00000E+00  9.000E+00
       6     2     1     2   502     0 -2.903415366E+01 -1.443116267E+02 -5.017825464E+01  2.318850684E+02  1.720000000E+02  0.00000E+00  9.000E+00
      -6     2     1     2     0   504 -5.376511370E+00  1.474344693E+01 -1.190191615E+02  2.097518460E+02  1.720000000E+02  0.00000E+00  9.000E+00
      24     2     3     3     0     0 -1.969504123E+01 -2.127775514E+01  2.369086088E+01  8.799705181E+01  7.963408017E+01  0.00000E+00  9.000E+00
     -24     2     4     4     0     0 -3.381739866E+01  5.123306917E+01 -1.262353317E+02  1.626879297E+02  8.224086378E+01  0.00000E+00  9.000E+00
     -11     1     5     5     0     0  8.270822663E+00 -4.478296093E+01  2.397132801E+01  5.146401328E+01  1.430511475E-06  0.00000E+00  9.000E+00
      12     1     5     5     0     0 -2.796586389E+01  2.350520578E+01 -2.804671310E-01  3.653303853E+01  9.158760867E-07  0.00000E+00  9.000E+00
      13     1     6     6     0     0 -5.401124395E+01  5.741782835E+01 -8.242226684E+01  1.140502151E+02  9.536743164E-07  0.00000E+00  9.000E+00
     -14     1     6     6     0     0  2.019384529E+01 -6.184759176E+00 -4.381306487E+01  4.863771466E+01  1.507891493E-06  0.00000E+00  9.000E+00
       5     1     3     3   502     0 -9.339112430E+00 -1.230338716E+02 -7.386911552E+01  1.438880165E+02  4.750000000E+00  0.00000E+00  9.000E+00
      -5     1     4     4     0   504  2.844088729E+01 -3.648962224E+01  7.216170252E+00  4.706391627E+01  4.750000000E+00  0.00000E+00  9.000E+00
      21     1     1     2   504   512  3.441066503E+01  1.295681798E+02 -9.561000254E+00  1.344002225E+02  2.503395081E-06  0.00000E+00  9.000E+00
</event>
<event>
     13  10001  1.00000E+00  2.01148E+01 -1.00000E+00  1.70567E-01
      21    -1     0     0   502   503  0.000000000E+00  0.000000000E+00  2.456795325E+02  2.456795325E+02  0.000000000E+00  0.00000E+00  9.000E+00
       2    -1     0     0   503     0  0.000000000E+00  0.000000000E+00 -3.391322092E+02  3.391322092E+02  0.000000000E+00  0.00000E+00  9.000E+00
       6     2     1     2   502     0  4.398966968E+01 -7.255284953E+01  1.028183743E+02  2.176111787E+02  1.720000000E+02  0.00000E+00  9.000E+00
      -6     2     1     2     0   504 -5.156498278E+01  9.118666476E+01 -3.467010592E+01  2.043525667E+02  1.720000000E+02  0.00000E+00  9.000E+00
      24     2     3     3     0     0  2.840860747E+01 -8.187753143E+00 -1.164702355E+01  8.528383864E+01  7.914285625E+01  0.00000E+00  9.000E+00
     -24     2     4     4     0     0 -9.096237973E+01  1.029661131E+02 -1.243934228E+01  1.573666152E+02  7.571881779E+01  0.00000E+00  9.000E+00
     -11     1     5     5     0     0  1.794699815E+01 -3.489717688E+01  1.874814866E+01  4.349023770E+01  6.743495762E-07  0.00000E+00  9.000E+00
      12     1     5     5     0     0  1.046160931E+01  2.670942374E+01 -3.039517221E+01  4.179360094E+01  1.011524364E-06  0.00000E+00  9.000E+00
      13     1     6     6     0     0 -2.273740470E+01 -5.578168551E+00  1.282759043E+01  2.669555418E+01  4.129530925E-07  0.00000E+00  9.000E+00
     -14     1     6     6     0     0 -6.822497502E+01  1.085442816E+02 -2.526693271E+01  1.306710610E+02  1.581489940E-06  0.00000E+00  9.000E+00
       5     1     3     3   502     0  1.558106222E+01 -6.436509638E+01  1.144653978E+02  1.323273401E+02  4.750000000E+00  0.00000E+00  9.000E+00
      -5     1     4     4     0   504  3.939739695E+01 -1.177944833E+01 -2.223076364E+01  4.698595153E+01  4.750000000E+00  0.00000E+00  9.000E+00
       2     1     1     2   504     0  7.575313095E+00 -1.863381523E+01 -1.616009450E+02  1.628479962E+02  0.000000000E+00  0.00000E+00  9.000E+00
</event>
<event>
     13  10001  1.00000E+00  4.36729E+01 -1.00000E+00  1.45709E-01
       2    -1     0     0   502     0  0.000000000E+00  0.000000000E+00  1.968117347E+02  1.968117347E+02  0.000000000E+00  0.00000E+00  9.000E+00
      -2    -1     0     0     0   511  0.000000000E+00  0.000000000E+00 -3.709282869E+02  3.709282869E+02  0.000000000E+00  0.00000E+00  9.000E+00
       6     2     1     2   502     0  1.374025148E+01 -4.402969883E+01 -1.395173025E+02  2.262222062E+02  1.720000000E+02  0.00000E+00  9.000E+00
      -6     2     1     2     0   512  4.426939098E+00  4.314766991E+00  1.006579610E+02  1.993846537E+02  1.720000000E+02  0.00000E+00  9.000E+00
      24     2     3     3     0     0  4.860247533E+01 -1.860173927E+01 -1.684979166E+01  9.609981577E+01  7.901287110E+01  0.00000E+00  9.000E+00
     -24     2     4     4     0     0  1.111831071E+01  6.685706896E+01  8.662070306E+01  1.347632865E+02  7.787498107E+01  0.00000E+00  9.000E+00
     -11     1     5     5     0     0  3.512274944E+01  9.921111821E+00  2.459740490E+01  4.401213827E+01  6.743495762E-07  0.00000E+00  9.000E+00
      12     1     5     5     0     0  1.347972590E+01 -2.852285109E+01 -4.144719655E+01  5.208767749E+01  4.768371582E-07  0.00000E+00  9.000E+00
      13     1     6     6     0     0 -1.540420242E+01  2.435732782E+01 -6.022981421E+00  2.944223456E+01  4.042583694E-07  0.00000E+00  9.000E+00
     -14     1     6     6     0     0  2.652251313E+01  4.249974114E+01  9.264368448E+01  1.053210519E+02  1.348699152E-06  0.00000E+00  9.000E+00
       5     1     3     3   502     0 -3.486222385E+01 -2.542795956E+01 -1.226675109E+02  1.301223905E+02  4.750000000E+00  0.00000E+00  9.000E+00
      -5     1     4     4     0   512 -6.691371613E+00 -6.254230197E+01  1.403725796E+01  6.462136721E+01  4.750000000E+00  0.00000E+00  9.000E+00
      21     1     1     2   512   511 -1.816719058E+01  3.971493184E+01 -1.352572107E+02  1.421331618E+02  2.697398305E-06  0.00000E+00  9.000E+00
</event>
<event>
     13  10001  1.00000E+00  5.05601E+01 -1.00000E+00  1.41825E-01
      21    -1     0     0   513   504  0.000000000E+00  0.000000000E+00  5.363587739E+01  5.363587739E+01  0.000000000E+00  0.00000E+00  9.000E+00
      21    -1     0     0   502   503  0.000000000E+00  0.000000000E+00 -8.264603953E+02  8.264603953E+02  0.000000000E+00  0.00000E+00  9.000E+00
       6     2     1     2   502     0 -4.166987905E+01 -1.329996773E+00 -3.790409495E+02  4.183230679E+02  1.720000000E+02  0.00000E+00  9.000E+00
      -6     2     1     2     0   504  6.884666928E+01  4.396504243E+01 -3.188141264E+02  3.713478639E+02  1.720000000E+02  0.00000E+00  9.000E+00
      24     2     3     3     0     0 -5.056594355E+01  3.138286909E+01 -1.145805853E+02  1.516563878E+02  7.955595702E+01  0.00000E+00  9.000E+00
     -24     2     4     4     0     0  2.635810186E+01  7.894467542E+01 -1.303005133E+02  1.749075474E+02  8.177661700E+01  0.00000E+00  9.000E+00
     -11     1     5     5     0     0 -1.824292589E+01 -9.361711798E+00 -9.319248666E+01  9.542162000E+01  0.000000000E+00  0.00000E+00  9.000E+00
      12     1     5     5     0     0 -3.232301767E+01  4.074458089E+01 -2.138809868E+01  5.623476778E+01  3.371747881E-07  0.00000E+00  9.000E+00
      13     1     6     6     0     0  1.970241507E+00  3.029939585E+01  3.404114827E+00  3.055361252E+01  1.354613087E-06  0.00000E+00  9.000E+00
     -14     1     6     6     0     0  2.438786035E+01  4.864527957E+01 -1.337046281E+02  1.443539349E+02  2.697398305E-06  0.00000E+00  9.000E+00
       5     1     3     3   502     0  8.896064500E+00 -3.271286586E+01 -2.644603642E+02  2.666666801E+02  4.750000000E+00  0.00000E+00  9.000E+00
      -5     1     4     4     0   504  4.248856742E+01 -3.497963299E+01 -1.885136131E+02  1.964403165E+02  4.750000000E+00  0.00000E+00  9.000E+00
      21     1     1     2   513   503 -2.717679023E+01 -4.263504566E+01 -7.496944198E+01  9.042534090E+01  9.536743164E-07  0.00000E+00  9.000E+00
</event>
<event>
     13  10001  1.00000E+00  1.04657E+02 -1.00000E+00  1.25298E-01
      21    -1     0     0   502   503  0.000000000E+00  0.000000000E+00  1.224774814E+02  1.224774814E+02  0.000000000E+00  0.00000E+00  9.000E+00
      21    -1     0     0   511   504  0.000000000E+00  0.000000000E+00 -5.755508583E+02  5.755508583E+02  0.000000000E+00  0.00000E+00  9.000E+00
       6     2     1     2   502     0 -3.347188666E+01 -9.340789034E+01 -1.359276122E+02  2.406360674E+02  1.720000000E+02  0.00000E+00  9.000E+00
      -6     2     1     2     0   504  1.322268843E+02  5.875812528E+01 -2.096967775E+02  3.073974702E+02  1.720000000E+02  0.00000E+00  9.000E+00
      24     2     3     3     0     0  3.751522586E+01 -6.042317003E+01 -3.694452389E+01  1.143531462E+02  8.156833057E+01  0.00000E+00  9.000E+00
     -24     2     4     4     0     0  9.949146685E+00 -8.487545217E+00 -5.400637128E+01  9.826619472E+01  8.104648630E+01  0.00000E+00  9.000E+00
     -11     1     5     5     0     0  6.064460706E+01 -3.285182691E+01 -3.720104573E+01  7.836407787E+01  6.743495762E-07  0.00000E+00  9.000E+00
      12     1     5     5     0     0 -2.312938119E+01 -2.757134312E+01  2.565218421E-01  3.598906833E+01  6.267019010E-07  0.00000E+00  9.000E+00
      13     1     6     6     0     0 -3.951340574E+00  1.037181644E+01 -6.936812409E+01  7.025043991E+01  1.651812370E-06  0.00000E+00  9.000E+00
     -14     1     6     6     0     0  1.390048726E+01 -1.885936166E+01  1.536175280E+01  2.801575481E+01  3.371747881E-07  0.00000E+00  9.000E+00
       5     1     3     3   502     0 -7.098711252E+01 -3.298472031E+01 -9.898308827E+01  1.262829212E+02  4.750000000E+00  0.00000E+00  9.000E+00
      -5     1     4     4     0   504  1.222777376E+02  6.724567050E+01 -1.556904062E+02  2.091312755E+02  4.750000000E+00  0.00000E+00  9.000E+00
      21     1     1     2   511   503 -9.875499762E+01  3.464976506E+01 -1.074489873E+02  1.499948020E+02  1.907348633E-06  0.00000E+00  9.000E+00
</event>
<event>
     13  10001  1.00000E+00  1.91464E+02 -1.00000E+00  1.14296E-01
      21    -1     0     0   503   512  0.000000000E+00  0.000000000E+00  4.381805248E+02  4.381805248E+02  0.000000000E+00  0.00000E+00  9.000E+00
      21    -1     0     0   502   503  0.000000000E+00  0.000000000E+00 -6.017495564E+02  6.017495564E+02  0.000000000E+00  0.00000E+00  9.000E+00
       6     2     1     2   502     0 -4.941084634E+01  3.900591295E+01 -7.806677812E+01  1.991012678E+02  1.720000000E+02  0.00000E+00  9.000E+00
      -6     2     1     2     0   504 -3.549607619E+01  1.326019973E+02 -4.092719436E+02  4.646835321E+02  1.720000000E+02  0.00000E+00  9.000E+00
      24     2     3     3     0     0 -2.751077125E+00  2.288321191E+01  1.641150338E+01  9.239707981E+01  8.795836004E+01  0.00000E+00  9.000E+00
     -24     2     4     4     0     0 -7.542700890E+01  1.324791222E+02 -2.742225827E+02  3.237743880E+02  7.994922129E+01  0.00000E+00  9.000E+00
     -11     1     5     5     0     0 -3.046823162E+01  3.204628845E+01  3.618597851E+01  5.713757767E+01  1.719260824E-06  0.00000E+00  9.000E+00
      12     1     5     5     0     0  2.771715449E+01 -9.163076543E+00 -1.977447512E+01  3.525950214E+01  2.384185791E-07  0.00000E+00  9.000E+00
      13     1     6     6     0     0 -5.095877257E+01  3.890856991E+01 -5.618721120E+01  8.525066579E+01  6.743495762E-07  0.00000E+00  9.000E+00
     -14     1     6     6     0     0 -2.446823633E+01  9.357055227E+01 -2.180353715E+02  2.385237222E+02  2.697398305E-06  0.00000E+00  9.000E+00
       5     1     3     3   502     0 -4.665976921E+01  1.612270104E+01 -9.447828150E+01  1.067041880E+02  4.750000000E+00  0.00000E+00  9.000E+00
      -5     1     4     4     0   504  3.993093271E+01  1.228751505E-01 -1.350493610E+02  1.409091441E+02  4.750000000E+00  0.00000E+00  9.000E+00
      21     1     1     2   504   512  8.490692253E+01 -1.716079103E+02  3.237696902E+02  3.761452813E+02  0.000000000E+00  0.00000E+00  9.000E+00
</event>
<event>
     13  10001  1.00000E+00  5.55753E+01 -1.00000E+00  1.39428E-01
      21    -1     0     0   511   504  0.000000000E+00  0.000000000E+00  7.589986819E+01  7.589986819E+01  0.000000000E+00  0.00000E+00  9.000E+00
      21    -1     0     0   502   503  0.000000000E+00  0.000000000E+00 -9.205780204E+02  9.205780204E+02  0.000000000E+00  0.00000E+00  9.000E+00
       6     2     1     2   502     0 -9.889664460E+01  5.200275026E+01 -4.219051699E+02  4.691191797E+02  1.720000000E+02  0.00000E+00  9.000E+00
      -6     2     1     2     0   504  4.931920367E+01 -2.688923634E+01 -4.344027810E+02  4.705796330E+02  1.720000000E+02  0.00000E+00  9.000E+00
      24     2     3     3     0     0 -7.476296066E+01 -3.165341426E+01 -1.960930758E+02  2.270562687E+02  8.068838717E+01  0.00000E+00  9.000E+00
     -24     2     4     4     0     0  1.273333173E+01  4.553213398E+01 -2.917600871E+02  3.064063054E+02  8.078095418E+01  0.00000E+00  9.000E+00
     -11     1     5     5     0     0 -4.703919464E+01 -9.106917464E+00 -1.827265830E+02  1.889037478E+02  2.697398305E-06  0.00000E+00  9.000E+00
      12     1     5     5     0     0 -2.772376602E+01 -2.254649680E+01 -1.336649282E+01  3.815252089E+01  9.386548846E-07  0.00000E+00  9.000E+00
      13     1     6     6     0     0  3.971603835E+01  5.237120954E+01 -2.010236605E+02  2.114961451E+02  4.672030912E-06  0.00000E+00  9.000E+00
     -14     1     6     6     0     0 -2.698270663E+01 -6.839075561E+00 -9.073642659E+01  9.491016027E+01  1.907348633E-06  0.00000E+00  9.000E+00
       5     1     3     3   502     0 -2.413368395E+01  8.365616453E+01 -2.258120941E+02  2.420629110E+02  4.750000000E+00  0.00000E+00  9.000E+00
      -5     1     4     4     0   504  3.658587195E+01 -7.242137032E+01 -1.426426939E+02  1.641733277E+02  4.750000000E+00  0.00000E+00  9.000E+00
      21     1     1     2   511   503  4.957744093E+01 -2.511351392E+01  1.162979877E+01  5.677907581E+01  8.429369702E-07  0.00000E+00  9.000E+00
</event>
<event>
     13  10001  1.00000E+00  4.59637E+01 -1.00000E+00  1.44328E-01
      21    -1     0     0   502   503  0.000000000E+00  0.000000000E+00  5.856770319E+02  5.856770319E+02  0.000000000E+00  0.00000E+00  9.000E+00
      21    -1     0     0   503   512  0.000000000E+00  0.000000000E+00 -1.644961038E+02  1.644961038E+02  0.000000000E+00  0.00000E+00  9.000E+00
       6     2     1     2   502     0 -2.111669971E+02 -7.755043594E+01  1.079918306E+02  3.030706291E+02  1.720000000E+02  0.00000E+00  9.000E+00
      -6     2     1     2     0   504  1.946060535E+02  3.467390702E+01  3.019407550E+02  3.997824601E+02  1.720000000E+02  0.00000E+00  9.000E+00
      24     2     3     3     0     0 -1.687995886E+02 -1.041581812E+02  1.270522134E+02  2.493227910E+02  8.171512313E+01  0.00000E+00  9.000E+00
     -24     2     4     4     0     0  1.663499917E+02 -3.394043882E+01  2.217459448E+02  2.904202017E+02  7.967657367E+01  0.00000E+00  9.000E+00
     -11     1     5     5     0     0 -1.552326190E+02 -9.467162239E+01  7.853621858E+01  1.980601416E+02  3.015782986E-06  0.00000E+00  9.000E+00
      12     1     5     5     0     0 -1.356696961E+01 -9.486558860E+00  4.851599484E+01  5.126264935E+01  6.743495762E-07  0.00000E+00  9.000E+00
      13     1     6     6     0     0  4.467013469E+01 -4.737970390E+01  7.816129010E+01  1.017322198E+02  1.348699152E-06  0.00000E+00  9.000E+00
     -14     1     6     6     0     0  1.216798570E+02  1.343926507E+01  1.435846547E+02  1.886879819E+02  2.697398305E-06  0.00000E+00  9.000E+00
       5     1     3     3   502     0 -4.236740850E+01  2.660774531E+01 -1.906038280E+01  5.374783815E+01  4.750000000E+00  0.00000E+00  9.000E+00
      -5     1     4     4     0   504  2.825606181E+01  6.861434584E+01  8.019481019E+01  1.093622584E+02  4.750000000E+00  0.00000E+00  9.000E+00
      21     1     1     2   504   512  1.656094354E+01  4.287652892E+01  1.124834250E+01  4.732004641E+01  1.685873940E-07  0.00000E+00  9.000E+00
</event>
<event>
     13  10001  1.00000E+00  1.16770E+01 -1.00000E+00  1.94009E-01
      21    -1     0     0   503   511  0.000000000E+00  0.000000000E+00  2.298470317E+02  2.298470317E+02  0.000000000E+00  0.00000E+00  9.000E+00
      21    -1     0     0   502   503  0.000000000E+00  0.000000000E+00 -3.210161938E+02  3.210161938E+02  0.000000000E+00  0.00000E+00  9.000E+00
       6     2     1     2   502     0 -1.248404030E+02 -4.698203382E+01 -1.620814866E+02  2.713795240E+02  1.720000000E+02  0.00000E+00  9.000E+00
      -6     2     1     2     0   504  1.132622239E+02  4.546573521E+01  3.358712870E+00  2.109282944E+02  1.720000000E+02  0.00000E+00  9.000E+00
      24     2     3     3     0     0 -1.503453499E+02 -6.428439984E+01 -1.179211345E+02  2.173186935E+02  8.115301796E+01  0.00000E+00  9.000E+00
     -24     2     4     4     0     0  1.099570806E+02 -2.611376147E+01  5.587687846E+00  1.390806838E+02  8.086857398E+01  0.00000E+00  9.000E+00
     -11     1     5     5     0     0 -4.123422457E+00 -1.219971350E+01  9.898791034E+00  1.624258865E+01  6.307962682E-07  0.00000E+00  9.000E+00
      12     1     5     5     0     0 -1.462219274E+02 -5.208468634E+01 -1.278199255E+02  2.010761049E+02  3.814697266E-06  0.00000E+00  9.000E+00
      13     1     6     6     0     0  6.699080014E+01 -5.820045006E+00  4.194185800E+01  7.925124402E+01  2.611744678E-06  0.00000E+00  9.000E+00
     -14     1     6     6     0     0  4.296628044E+01 -2.029371646E+01 -3.635417015E+01  5.982943982E+01  9.536743164E-07  0.00000E+00  9.000E+00
       5     1     3     3   502     0  2.550494685E+01  1.730236602E+01 -4.416035216E+01  5.406083043E+01  4.750000000E+00  0.00000E+00  9.000E+00
      -5     1     4     4     0   504  3.305143327E+00  7.157949668E+01 -2.228974976E+00  7.184761059E+01  4.750000000E+00  0.00000E+00  9.000E+00
      21     1     1     2   504   511  1.157817910E+01  1.516298610E+00  6.755361167E+01  6.855540710E+01  0.000000000E+00  0.00000E+00  9.000E+00
</event>
<event>
     13  10001  1.00000E+00  6.02397E+01 -1.00000E+00  1.37450E-01
      21    -1     0     0   502   503  0.000000000E+00  0.000000000E+00  1.504063012E+02  1.504063012E+02  0.000000000E+00  0.00000E+00  9.000E+00
      21    -1     0     0   503   512  0.000000000E+00  0.000000000E+00 -4.470953570E+02  4.470953570E+02  0.000000000E+00  0.00000E+00  9.000E+00
       6     2     1     2   502     0 -1.148389445E+02 -7.517577745E+01 -2.290826635E+02  3.176511410E+02  1.720000000E+02  0.00000E+00  9.000E+00
      -6     2     1     2     0   504  5.739213065E+01  5.704615526E+01 -1.058760722E+00  1.900874574E+02  1.720000000E+02  0.00000E+00  9.000E+00
      24     2     3     3     0     0 -8.889827216E+01 -6.970258526E+01 -2.472328060E+02  2.851724636E+02  8.624337913E+01  0.00000E+00  9.000E+00
     -24     2     4     4     0     0  4.921572298E+01  5.374906730E+01  6.229875272E+01  1.259433896E+02  8.166672001E+01  0.00000E+00  9.000E+00
     -11     1     5     5     0     0 -5.654941887E+01 -8.330324191E+01 -1.407355070E+02  1.730426243E+02  3.814697266E-06  0.00000E+00  9.000E+00
      12     1     5     5     0     0 -3.234885330E+01  1.360065665E+01 -1.064972990E+02  1.121298393E+02  1.907348633E-06  0.00000E+00  9.000E+00
      13     1     6     6     0     0  2.517857230E+01  2.851765181E+01  7.871209964E+01  8.742317541E+01  2.523185073E-06  0.00000E+00  9.000E+00
     -14     1     6     6     0     0  2.403715068E+01  2.523141550E+01 -1.641334692E+01  3.852021415E+01  1.390207266E-06  0.00000E+00  9.000E+00
       5     1     3     3   502     0 -2.594067236E+01 -5.473192192E+00  1.815014252E+01  3.247867745E+01  4.750000000E+00  0.00000E+00  9.000E+00
      -5     1     4     4     0   504  8.176407668E+00  3.297087954E+00 -6.335751344E+01  6.414406786E+01  4.750000000E+00  0.00000E+00  9.000E+00
      21     1     1     2   504   512  5.744681387E+01  1.812962219E+01 -6.654763166E+01  8.976305980E+01  1.348699152E-06  0.00000E+00  9.000E+00
</event>
<event>
     13  10001  1.00000E+00  1.31498E+01 -1.00000E+00  1.88334E-01
      -2    -1     0     0     0   512  0.000000000E+00  0.000000000E+00  4.444230695E+01  4.444230695E+01  0.000000000E+00  0.00000E+00  9.000E+00
       2    -1     0     0   511     0  0.000000000E+00  0.000000000E+00 -1.561023822E+03  1.561023822E+03  0.000000000E+00  0.00000E+00  9.000E+00
       6     2     1     2   502     0 -1.790536942E+02 -2.021185680E+01 -5.381884866E+02  5.930426559E+02  1.720000000E+02  0.00000E+00  9.000E+00
      -6     2     1     2     0   512  1.744389976E+02  3.252532043E+01 -9.269645081E+02  9.593404295E+02  1.720000000E+02  0.00000E+00  9.000E+00
      24     2     3     3     0     0 -6.170906137E+01 -1.327322962E+01 -1.131929798E+02  1.520645943E+02  7.954120509E+01  0.00000E+00  9.000E+00
     -24     2     4     4     0     0  1.002919059E+02 -3.580951323E+01 -3.712853446E+02  3.945667262E+02  8.055623293E+01  0.00000E+00  9.000E+00
     -11     1     5     5     0     0 -1.056161402E+01 -2.285106668E+01 -9.283490759E+01  9.618752002E+01  1.348699152E-06  0.00000E+00  9.000E+00
      12     1     5     5     0     0 -5.114744735E+01  9.577837060E+00 -2.035807217E+01  5.587707433E+01  2.223820461E-06  0.00000E+00  9.000E+00
      13     1     6     6     0     0  8.296559776E+01  1.024728046E+01 -2.133495989E+02  2.291426379E+02  2.697398305E-06  0.00000E+00  9.000E+00
     -14     1     6     6     0     0  1.732630811E+01 -4.605679369E+01 -1.579357457E+02  1.654240883E+02  4.264961200E-06  0.00000E+00  9.000E+00
       5     1     3     3   502     0 -1.173446329E+02 -6.938627179E+00 -4.249955069E+02  4.409780615E+02  4.750000000E+00  0.00000E+00  9.000E+00
      -5     1     4     4     0   512  7.414709176E+01  6.833483366E+01 -5.556791635E+02  5.647737033E+02  4.750000000E+00  0.00000E+00  9.000E+00
      21     1     1     2   511   502  4.614696584E+00 -1.231346363E+01 -5.142852011E+01  5.308304336E+01  0.000000000E+00  0.00000E+00  9.000E+00
</event>
<event>
     13  10001  1.00000E+00  2.99001E+01 -1.00000E+00  1.56852E-01
      21    -1     0     0   512   504  0.000000000E+00  0.000000000E+00  1.379598283E+02  1.379598283E+02  0.000000000E+00  0.00000E+00  9.000E+00
      21    -1     0     0   502   503  0.000000000E+00  0.000000000E+00 -4.770650845E+02  4.770650845E+02  0.000000000E+00  0.00000E+00  9.000E+00
       6     2     1     2   502     0 -2.837737783E+01  6.035339888E+01 -3.411502273E+02  3.878340959E+02  1.720000000E+02  0.00000E+00  9.000E+00
      -6     2     1     2     0   504  4.970876548E+01 -8.130547077E+01 -4.043395987E+00  1.966771212E+02  1.720000000E+02  0.00000E+00  9.000E+00
      24     2     3     3     0     0 -2.602562787E+01  7.892758772E+01 -1.324311836E+02  1.782231875E+02  8.554875073E+01  0.00000E+00  9.000E+00
     -24     2     4     4     0     0  2.184647953E+01  5.244794013E+00 -4.753748575E+01  9.577343613E+01  8.004974693E+01  0.00000E+00  9.000E+00
     -11     1     5     5     0     0 -4.114093153E+01  1.039486875E+01 -2.312234188E+01  4.832465455E+01  1.348699152E-06  0.00000E+00  9.000E+00
      12     1     5     5     0     0  1.511530366E+01  6.853271898E+01 -1.093088418E+02  1.298985329E+02  1.907348633E-06  0.00000E+00  9.000E+00
      13     1     6     6     0     0  3.980045495E+01  2.755414009E+01 -1.152074554E+01  4.975976717E+01  1.359195024E-06  0.00000E+00  9.000E+00
     -14     1     6     6     0     0 -1.795397542E+01 -2.230934608E+01 -3.601674021E+01  4.601366896E+01  8.259061849E-07  0.00000E+00  9.000E+00
       5     1     3     3   502     0 -2.351749957E+00 -1.857418885E+01 -2.087190437E+02  2.096109084E+02  4.750000000E+00  0.00000E+00  9.000E+00
      -5     1     4     4     0   504  2.786228595E+01 -8.655026478E+01  4.349408976E+01  1.009036850E+02  4.750000000E+00  0.00000E+00  9.000E+00
      21     1     1     2   512   503 -2.133138765E+01  2.095207189E+01  6.088367030E+00  3.051369576E+01  6.019774043E-07  0.00000E+00  9.000E+00
</event>
<event>
     13  10001  1.00000E+00  1.50246E+01 -1.00000E+00  1.82362E-01
      -3    -1     0     0     0   504  0.000000000E+00  0.000000000E+00  6.113017325E+01  6.113017325E+01  0.000000000E+00  0.00000E+00  9.000E+00
      21    -1     0     0   502   503  0.000000000E+00  0.000000000E+00 -1.230760597E+03  1.230760597E+03  0.000000000E+00  0.00000E+00  9.000E+00
       6     2     1     2   502     0  5.547651291E+01  1.345920879E+01 -7.526368242E+02  7.741479076E+02  1.720000000E+02  0.00000E+00  9.000E+00
      -6     2     1     2     0   504 -4.340125769E+01 -2.239946235E+01 -4.485058092E+02  4.828321302E+02  1.720000000E+02  0.00000E+00  9.000E+00
      24     2     3     3     0     0  8.847225185E+01 -2.970327432E+01 -5.839622428E+02  5.968758127E+02  8.086538771E+01  0.00000E+00  9.000E+00
     -24     2     4     4     0     0 -6.584703416E+01 -5.699527863E+01 -4.077877564E+02  4.246839943E+02  8.050681375E+01  0.00000E+00  9.000E+00
     -11     1     5     5     0     0  7.893272709E+01 -3.631752449E+01 -2.912635706E+02  3.039470440E+02  6.607249480E-06  0.00000E+00  9.000E+00
      12     1     5     5     0     0  9.539524762E+00  6.614250176E+00 -2.926986721E+02  2.929287687E+02  5.394796609E-06  0.00000E+00  9.000E+00
      13     1     6     6     0     0 -7.940072730E+01 -3.675564257E+01 -2.465122887E+02  2.615793594E+02  0.000000000E+00  0.00000E+00  9.000E+00
     -14     1     6     6     0     0  1.355369313E+01 -2.023963606E+01 -1.612754677E+02  1.631046350E+02  0.000000000E+00  0.00000E+00  9.000E+00
       5     1     3     3   502     0 -3.299573893E+01  4.316248311E+01 -1.686745814E+02  1.772720949E+02  4.750000000E+00  0.00000E+00  9.000E+00
      -5     1     4     4     0   504  2.244577647E+01  3.459581628E+01 -4.071805282E+01  5.814813592E+01  4.750000000E+00  0.00000E+00  9.000E+00
      -3     1     1     2     0   503 -1.207525522E+01  8.940253558E+00  3.151220932E+01  3.491073271E+01  1.685873940E-06  0.00000E+00  9.000E+00
</event>
<event>
     13  10001  1.00000E+00  3.77817E+01 -1.00000E+00  1.49773E-01
      21    -1     0     0   502   503  0.000000000E+00  0.000000000E+00  6.514488252E+02  6.514488252E+02  0.000000000E+00  0.00000E+00  9.000E+00
       2    -1     0     0   503     0  0.000000000E+00  0.000000000E+00 -5.240516015E+02  5.240516015E+02  0.000000000E+00  0.00000E+00  9.000E+00
       6     2     1     2   502     0 -1.382322545E+02 -3.617449790E+02  4.341427862E+02  6.066560350E+02  1.720000000E+02  0.00000E+00  9.000E+00
      -6     2     1     2     0   504  1.019496377E+02  3.722819826E+02 -2.248968398E+02  4.786963461E+02  1.720000000E+02  0.00000E+00  9.000E+00
      24     2     3     3     0     0 -1.013063175E+02 -3.615983804E+02  4.122796780E+02  5.634807607E+02  8.074451098E+01  0.00000E+00  9.000E+00
     -24     2     4     4     0     0  1.347291203E+02  2.465081060E+02 -1.659899328E+02  3.359162749E+02  7.980541221E+01  0.00000E+00  9.000E+00
     -11     1     5     5     0     0 -1.677987035E+01 -1.652777161E+02  1.394770424E+02  2.169150360E+02  3.814697266E-06  0.00000E+00  9.000E+00
      12     1     5     5     0     0 -8.452644718E+01 -1.963206643E+02  2.728026357E+02  3.465657247E+02  9.344061824E-06  0.00000E+00  9.000E+00
      13     1     6     6     0     0  1.175682682E+01  3.585416378E+01 -5.792179794E+01  6.912798792E+01  9.536743164E-07  0.00000E+00  9.000E+00
     -14     1     6     6     0     0  1.229722934E+02  2.106539422E+02 -1.080681349E+02  2.667882870E+02  1.348699152E-06  0.00000E+00  9.000E+00
       5     1     3     3   502     0 -3.692593699E+01 -1.465985561E-01  2.186310816E+01  4.317527432E+01  4.750000000E+00  0.00000E+00  9.000E+00
      -5     1     4     4     0   504 -3.277948260E+01  1.257738766E+02 -5.890690705E+01  1.427800712E+02  4.750000000E+00  0.00000E+00  9.000E+00
       2     1     1     2   504     0  3.628261685E+01 -1.053700366E+01 -8.184872258E+01  9.014804557E+01  1.348699152E-06  0.00000E+00  9.000E+00
</event>
<event>
     13  10001  1.00000E+00  5.36990E+01 -1.00000E+00  1.40289E-01
      21    -1     0     0   502   503  0.000000000E+00  0.000000000E+00  1.448478921E+03  1.448478921E+03  0.000000000E+00  0.00000E+00  9.000E+00
      21    -1     0     0   511   504  0.000000000E+00  0.000000000E+00 -2.361350185E+02  2.361350185E+02  0.000000000E+00  0.00000E+00  9.000E+00
       6     2     1     2   502     0  6.473683944E+01  6.141802864E+01  1.343059422E+03  1.356965602E+03  1.720000000E+02  0.00000E+00  9.000E+00
      -6     2     1     2     0   504 -2.053130139E+01 -3.093108973E+01  1.079497179E+01  1.762917981E+02  1.720000000E+02  0.00000E+00  9.000E+00
      24     2     3     3     0     0  1.829475661E+01  2.764208844E+01  1.194709632E+03  1.197818174E+03  7.961462427E+01  0.00000E+00  9.000E+00
     -24     2     4     4     0     0  3.477658772E+01 -4.086148842E+01  4.895681293E+01  1.082002124E+02  8.019628511E+01  0.00000E+00  9.000E+00
     -11     1     5     5     0     0  2.274119015E+01 -2.330437027E+01  3.316146815E+02  3.332094722E+02  7.629394531E-06  0.00000E+00  9.000E+00
      12     1     5     5     0     0 -4.446433539E+00  5.094645871E+01  8.630949508E+02  8.646087014E+02  1.078959322E-05  0.00000E+00  9.000E+00
      13     1     6     6     0     0  1.134179598E+01 -2.630113717E+01 -1.932709012E+01  3.455318459E+01  1.348699152E-06  0.00000E+00  9.000E+00
     -14     1     6     6     0     0  2.343479174E+01 -1.456035125E+01  6.828390305E+01  7.364702783E+01  1.651812370E-06  0.00000E+00  9.000E+00
       5     1     3     3   502     0  4.644208283E+01  3.377594021E+01  1.483497898E+02  1.591474280E+02  4.750000000E+00  0.00000E+00  9.000E+00
      -5     1     4     4     0   504 -5.530788911E+01  9.930398690E+00 -3.816184114E+01  6.809158565E+01  4.750000000E+00  0.00000E+00  9.000E+00
      21     1     1     2   511   503 -4.420553804E+01 -3.048693891E+01 -1.415104912E+02  1.513565399E+02  1.907348633E-06  0.00000E+00  9.000E+00
</event>
<event>
     13  10001  1.00000E+00  1.81476E+02 -1.00000E+00  1.15191E-01
      21    -1     0     0   502   512  0.000000000E+00  0.000000000E+00  5.621248500E+02  5.621248500E+02  0.000000000E+00  0.00000E+00  9.000E+00
      21    -1     0     0   503   504  0.000000000E+00  0.000000000E+00 -3.652577532E+02  3.652577532E+02  0.000000000E+00  0.00000E+00  9.000E+00
       6     2     1     2   502     0  2.147224296E+02 -3.606976088E+01 -8.768646016E+01  2.909977057E+02  1.720000000E+02  0.00000E+00  9.000E+00
      -6     2     1     2     0   504 -7.716606632E+01 -8.230211208E+01 -8.664239298E+01  2.232020244E+02  1.720000000E+02  0.00000E+00  9.000E+00
      24     2     3     3     0     0  1.213181929E+02 -6.357769178E+01  1.820882763E+00  1.586528356E+02  8.004486127E+01  0.00000E+00  9.000E+00
     -24     2     4     4     0     0 -4.407176241E+01  1.676058915E+01 -1.976573821E+01  9.909037638E+01  8.488215769E+01  0.00000E+00  9.000E+00
     -11     1     5     5     0     0  2.951393104E+01 -2.275817613E+00 -3.161525343E+01  4.331022652E+01  9.536743164E-07  0.00000E+00  9.000E+00
      12     1     5     5     0     0  9.180426189E+01 -6.130187416E+01  3.343613619E+01  1.153426091E+02  1.066240300E-06  0.00000E+00  9.000E+00
      13     1     6     6     0     0 -5.989018041E+01  2.251031233E+01  1.013447087E+01  6.477851010E+01  1.395308961E-06  0.00000E+00  9.000E+00
     -14     1     6     6     0     0  1.581841800E+01 -5.749723186E+00 -2.990020908E+01  3.431186628E+01  6.743495762E-07  0.00000E+00  9.000E+00
       5     1     3     3   502     0  9.340423665E+01  2.750793090E+01 -8.950734293E+01  1.323448700E+02  4.750000000E+00  0.00000E+00  9.000E+00
      -5     1     4     4     0   504 -3.309430391E+01 -9.906270123E+01 -6.687665477E+01  1.241116480E+02  4.750000000E+00  0.00000E+00  9.000E+00
      21     1     1     2   503   512 -1.375563633E+02  1.183718730E+02  3.711959500E+02  4.131828731E+02  0.000000000E+00  0.00000E+00  9.000E+00
</event>
<event>
     13  10001  1.00000E+00  6.26336E+01 -1.00000E+00  1.36514E-01
      21    -1     0     0   503   504  0.000000000E+00  0.000000000E+00  3.177399474E+02  3.177399474E+02  0.000000000E+00  0.00000E+00  9.000E+00
      21    -1     0     0   502   511  0.000000000E+00  0.000000000E+00 -2.892282216E+02  2.892282216E+02  0.000000000E+00  0.00000E+00  9.000E+00
       6     2     1     2   502     0  1.294839231E+02  1.638185440E+01 -1.352999958E+02  2.548029442E+02  1.720000000E+02  0.00000E+00  9.000E+00
      -6     2     1     2     0   504 -6.902255429E+01 -2.985034093E-02  2.056529542E+02  2.768415638E+02  1.720000000E+02  0.00000E+00  9.000E+00
      24     2     3     3     0     0  5.204999125E+01  7.226666595E+01 -5.853239289E+01  1.321858437E+02  7.820091860E+01  0.00000E+00  9.000E+00
     -24     2     4     4     0     0 -4.238180750E+01  2.482799114E+01  2.178868782E+02  2.381133691E+02  8.252659009E+01  0.00000E+00  9.000E+00
     -11     1     5     5     0     0  2.645456188E+01 -6.443079116E+00  5.205696280E+00  2.772104591E+01  1.192092896E-07  0.00000E+00  9.000E+00
      12     1     5     5     0     0  2.559542937E+01  7.870974506E+01 -6.373808917E+01  1.044647978E+02  1.651812370E-06  0.00000E+00  9.000E+00
      13     1     6     6     0     0 -6.327563470E+01  3.120926785E+00  1.200259205E+02  1.357194449E+02  1.907348633E-06  0.00000E+00  9.000E+00
     -14     1     6     6     0     0  2.089382720E+01  2.170706435E+01  9.786095777E+01  1.023939242E+02  0.000000000E+00  0.00000E+00  9.000E+00
       5     1     3     3   502     0  7.743393185E+01 -5.588481155E+01 -7.676760290E+01  1.226171004E+02  4.750000000E+00  0.00000E+00  9.000E+00
      -5     1     4     4     0   504 -2.664074679E+01 -2.485784148E+01 -1.223392403E+01  3.872819476E+01  4.750000000E+00  0.00000E+00  9.000E+00
      21     1     1     2   503   511 -6.046136880E+01 -1.635200406E+01 -4.184123264E+01  7.532366098E+01  1.168007728E-06  0.00000E+00  9.000E+00
</event>
<event>
     13  10001  1.00000E+00  2.90155E+01 -1.00000E+00  1.57811E-01
      21    -1     0     0   503   504  0.000000000E+00  0.000000000E+00  3.623277848E+02  3.623277848E+02  0.000000000E+00  0.00000E+00  9.000E+00
       2    -1     0     0   502     0  0.000000000E+00  0.000000000E+00 -1.061298261E+03  1.061298261E+03  0.000000000E+00  0.00000E+00  9.000E+00
       6     2     1     2   502     0 -2.216812987E+02 -1.282393962E+02  1.065537855E+02  3.263826744E+02  1.720000000E+02  0.00000E+00  9.000E+00
      -6     2     1     2     0   504  1.930310146E+02  1.236501928E+02  4.572278269E+00  2.866273687E+02  1.720000000E+02  0.00000E+00  9.000E+00
      24     2     3     3     0     0 -2.343688403E+02 -9.473783757E+01  6.908198174E+01  2.743247574E+02  8.110327457E+01  0.00000E+00  9.000E+00
     -24     2     4     4     0     0  7.014714448E+01 -5.761227604E+00 -1.045748578E+01  1.074731961E+02  8.054387156E+01  0.00000E+00  9.000E+00
     -11     1     5     5     0     0  5.979920539E+00  2.087785740E+00  1.015964576E+00  6.414864220E+00  1.262208398E-06  0.00000E+00  9.000E+00
      12     1     5     5     0     0 -2.403487609E+02 -9.682562331E+01  6.806601716E+01  2.679098932E+02  6.397441800E-06  0.00000E+00  9.000E+00
      13     1     6     6     0     0  4.270721793E+01 -3.799135469E+01 -2.544742660E+01  6.256853055E+01  1.651812370E-06  0.00000E+00  9.000E+00
     -14     1     6     6     0     0  2.743992655E+01  3.223012709E+01  1.498994082E+01  4.490466554E+01  1.379947293E-06  0.00000E+00  9.000E+00
       5     1     3     3   502     0  1.268754160E+01 -3.350155868E+01  3.747180376E+01  5.205791700E+01  4.750000000E+00  0.00000E+00  9.000E+00
      -5     1     4     4     0   504  1.228838701E+02  1.294114204E+02  1.502976405E+01  1.791541726E+02  4.750000000E+00  0.00000E+00  9.000E+00
       2     1     1     2   503     0  2.865028413E+01  4.589203431E+00 -8.100965400E+02  8.106160026E+02  1.078959322E-05  0.00000E+00  9.000E+00
</event>
<event>
     13  10001  1.00000E+00  9.11030E+01 -1.00000E+00  1.28138E-01
      -2    -1     0     0     0   504  0.000000000E+00  0.000000000E+00  9.371623375E+01  9.371623375E+01  0.000000000E+00  0.00000E+00  9.000E+00
      21    -1     0     0   502   503  0.000000000E+00  0.000000000E+00 -6.009737385E+02  6.009737385E+02  0.000000000E+00  0.00000E+00  9.000E+00
       6     2     1     2   502     0  5.423930668E+01 -5.264339312E+01 -1.393707153E+02  2.339261112E+02  1.720000000E+02  0.00000E+00  9.000E+00
      -6     2     1     2     0   504  4.745221124E+00 -1.678701887E+01 -3.032216202E+02  3.490439401E+02  1.720000000E+02  0.00000E+00  9.000E+00
      24     2     3     3     0     0 -1.746397773E+01 -7.686104755E+00 -1.266125253E+02  1.482064945E+02  7.463488951E+01  0.00000E+00  9.000E+00
     -24     2     4     4     0     0  8.987059576E-01 -6.580640600E+01 -2.698399529E+02  2.894235223E+02  8.137004596E+01  0.00000E+00  9.000E+00
     -11     1     5     5     0     0 -1.954359401E+01 -3.912590826E+01 -8.880659532E+01  9.899191955E+01  1.348699152E-06  0.00000E+00  9.000E+00
      12     1     5     5     0     0  2.079616273E+00  3.143980351E+01 -3.780592997E+01  4.921457497E+01  1.066240300E-06  0.00000E+00  9.000E+00
      13     1     6     6     0     0 -2.204851092E+01 -5.460248307E+01 -8.853944527E+01  1.063334442E+02  2.336015456E-06  0.00000E+00  9.000E+00
     -14     1     6     6     0     0  2.294721688E+01 -1.120392293E+01 -1.813005076E+02  1.830900781E+02  2.697398305E-06  0.00000E+00  9.000E+00
       5     1     3     3   502     0  7.170328442E+01 -4.495728837E+01 -1.275818999E+01  8.571961669E+01  4.750000000E+00  0.00000E+00  9.000E+00
      -5     1     4     4     0   504  3.846515166E+00  4.901938713E+01 -3.338166735E+01  5.962041772E+01  4.750000000E+00  0.00000E+00  9.000E+00
      -2     1     1     2     0   503 -5.898452781E+01  6.943041199E+01 -6.466516926E+01  1.117199210E+02  1.907348633E-06  0.00000E+00  9.000E+00
</event>
<event>
     13  10001  1.00000E+00  6.58781E+01 -1.00000E+00  1.35320E-01
       1    -1     0     0   502     0  0.000000000E+00  0.000000000E+00  3.620441529E+02  3.620441529E+02  0.000000000E+00  0.00000E+00  9.000E+00
      21    -1     0     0   503   504  0.000000000E+00  0.000000000E+00 -1.958019475E+02  1.958019475E+02  0.000000000E+00  0.00000E+00  9.000E+00
       6     2     1     2   502     0 -8.133118219E+01 -8.839776998E+00 -6.795293640E+01  2.022238968E+02  1.720000000E+02  0.00000E+00  9.000E+00
      -6     2     1     2     0   504  6.904377095E+01 -5.588231283E+01  2.095613731E+02  2.852890539E+02  1.720000000E+02  0.00000E+00  9.000E+00
      24     2     3     3     0     0 -1.224640844E+02 -1.191860219E+01 -4.130049029E+01  1.528851676E+02  8.079999339E+01  0.00000E+00  9.000E+00
     -24     2     4     4     0     0  7.194496268E+01  2.128296413E+00  5.613789159E+01  1.211702711E+02  7.968791894E+01  0.00000E+00  9.000E+00
     -11     1     5     5     0     0 -7.632789148E+01 -9.728073533E+00 -6.522312126E+01  1.008694105E+02  2.697398305E-06  0.00000E+00  9.000E+00
      12     1     5     5     0     0 -4.613619292E+01 -2.190528658E+00  2.392263097E+01  5.201575709E+01  3.371747881E-07  0.00000E+00  9.000E+00
      13     1     6     6     0     0  8.262892280E+01  4.547955672E+00  6.644577281E+01  1.061285235E+02  9.536743164E-07  0.00000E+00  9.000E+00
     -14     1     6     6     0     0 -1.068396012E+01 -2.419659259E+00 -1.030788121E+01  1.504174757E+01  7.907449699E-07  0.00000E+00  9.000E+00
       5     1     3     3   502     0  4.113290222E+01  3.078825192E+00 -2.665244611E+01  4.933872914E+01  4.750000000E+00  0.00000E+00  9.000E+00
      -5     1     4     4     0   504 -2.901191724E+00 -5.801060925E+01  1.534234815E+02  1.641187828E+02  4.750000000E+00  0.00000E+00  9.000E+00
       1     1     1     2   503     0  1.228741124E+01  6.472208983E+01  2.463376874E+01  7.033314972E+01  1.011524364E-06  0.00000E+00  9.000E+00
</event>
<event>
     13  10001  1.00000E+00  5.20852E+01 -1.00000E+00  1.41063E-01
      21    -1     0     0   502   503  0.000000000E+00  0.000000000E+00  4.091194091E+02  4.091194091E+02  0.000000000E+00  0.00000E+00  9.000E+00
       1    -1     0     0   503     0  0.000000000E+00  0.000000000E+00 -6.134578277E+02  6.134578277E+02  0.000000000E+00  0.00000E+00  9.000E+00
       6     2     1     2   502     0 -6.336326242E+01  6.669215091E+01 -2.391173873E+02  3.085836530E+02  1.720000000E+02  0.00000E+00  9.000E+00
      -6     2     1     2     0   504  8.369124850E+01 -1.873754865E+01  3.474224705E+02  3.970411740E+02  1.720000000E+02  0.00000E+00  9.000E+00
      24     2     3     3     0     0 -2.434892212E+00  2.785242952E+01 -2.168226514E+02  2.328181727E+02  8.006592830E+01  0.00000E+00  9.000E+00
     -24     2     4     4     0     0  1.098847422E+02 -3.810237949E+01  1.896830163E+02  2.359033643E+02  7.838560279E+01  0.00000E+00  9.000E+00
     -11     1     5     5     0     0 -2.295511784E+01  3.284218784E+01 -4.732366308E+01  6.200867539E+01  1.507891493E-06  0.00000E+00  9.000E+00
      12     1     5     5     0     0  2.052022562E+01 -4.989758319E+00 -1.694989883E+02  1.708094974E+02  0.000000000E+00  0.00000E+00  9.000E+00
      13     1     6     6     0     0  7.853933281E+01 -1.378625121E+01  1.771991312E+02  1.943142290E+02  1.907348633E-06  0.00000E+00  9.000E+00
     -14     1     6     6     0     0  3.134540941E+01 -2.431612828E+01  1.248388516E+01  4.158913529E+01  8.920806376E-07  0.00000E+00  9.000E+00
       5     1     3     3   502     0 -6.092837021E+01  3.883972139E+01 -2.229473589E+01  7.576548028E+01  4.750000000E+00  0.00000E+00  9.000E+00
      -5     1     4     4     0   504 -2.619349372E+01  1.936483085E+01  1.577394542E+02  1.611378096E+02  4.750000000E+00  0.00000E+00  9.000E+00
       1     1     1     2   504     0 -2.032798608E+01 -4.795460226E+01 -3.126435018E+02  3.169524099E+02  3.814697266E-06  0.00000E+00  9.000E+00
</event>
<event>
     13  10001  1.00000E+00  1.02918E+02 -1.00000E+00  1.25635E-01
      21    -1     0     0   502   503  0.000000000E+00  0.000000000E+00  8.549886498E+02  8.549886498E+02  0.000000000E+00  0.00000E+00  9.000E+00
      21    -1     0     0   503   511  0.000000000E+00  0.000000000E+00 -3.001769655E+02  3.001769655E+02  0.000000000E+00  0.00000E+00  9.000E+00
       6     2     1     2   502     0 -2.822013526E+01 -9.377193908E+01  2.842214383E+02  3.463457501E+02  1.720000000E+02  0.00000E+00  9.000E+00
      -6     2     1     2     0   504  1.190736803E+02  4.542167187E+01  5.073475698E+02  5.506607179E+02  1.720000000E+02  0.00000E+00  9.000E+00
      24     2     3     3     0     0 -5.383949448E+01 -2.705899407E+01  7.458022436E+01  1.248080113E+02  7.989962141E+01  0.00000E+00  9.000E+00
     -24     2     4     4     0     0  8.624226877E+01 -2.568801981E+01  1.967569135E+02  2.303115207E+02  7.894624931E+01  0.00000E+00  9.000E+00
     -11     1     5     5     0     0 -5.549126003E+00  2.648745006E+01  2.814070045E+01  3.904198807E+01  1.168007728E-06  0.00000E+00  9.000E+00
      12     1     5     5     0     0 -4.829036847E+01 -5.354644413E+01  4.643952391E+01  8.576602327E+01  1.507891493E-06  0.00000E+00  9.000E+00
      13     1     6     6     0     0  1.476463088E+01 -3.643866390E+01  3.306766108E+01  5.137354145E+01  4.768371582E-07  0.00000E+00  9.000E+00
     -14     1     6     6     0     0  7.147763789E+01  1.075064409E+01  1.636892524E+02  1.789379793E+02  1.907348633E-06  0.00000E+00  9.000E+00
       5     1     3     3   502     0  2.561935921E+01 -6.671294501E+01  2.096412139E+02  2.215377387E+02  4.750000000E+00  0.00000E+00  9.000E+00
      -5     1     4     4     0   504  3.283141156E+01  7.110969167E+01  3.105906564E+02  3.203491972E+02  4.750000000E+00  0.00000E+00  9.000E+00
      21     1     1     2   504   511 -9.085354507E+01  4.835026722E+01 -2.367573238E+02  2.581591473E+02  2.697398305E-06  0.00000E+00  9.000E+00
</event>
<event>
     13  10001  1.00000E+00  3.41628E+01 -1.00000E+00  1.52737E-01
      -3    -1     0     0     0   504  0.000000000E+00  0.000000000E+00  3.064793230E+02  3.064793230E+02  0.000000000E+00  0.00000E+00  9.000E+00
      21    -1     0     0   502   503  0.000000000E+00  0.000000000E+00 -2.325139545E+02  2.325139545E+02  0.000000000E+00  0.00000E+00  9.000E+00
       6     2     1     2   502     0 -2.073634748E+01 -7.308215093E+01  2.788834760E+01  1.900861826E+02  1.720000000E+02  0.00000E+00  9.000E+00
      -6     2     1     2     0   504 -4.288576555E+00  4.982592996E+01 -9.569113893E+01  2.030807949E+02  1.720000000E+02  0.00000E+00  9.000E+00
      24     2     3     3     0     0 -5.146274298E+00  2.354918648E+01  3.643313485E+01  9.171829335E+01  8.064628755E+01  0.00000E+00  9.000E+00
     -24     2     4     4     0     0 -4.708893903E+01  8.173424028E+01 -6.109985467E+01  1.392910564E+02  8.228579422E+01  0.00000E+00  9.000E+00
     -11     1     5     5     0     0 -2.544858081E+01  3.613070298E-01 -1.659567554E+01  3.038383212E+01  3.371747881E-07  0.00000E+00  9.000E+00
      12     1     5     5     0     0  2.030230651E+01  2.318787945E+01  5.302881039E+01  6.133446123E+01  1.651812370E-06  0.00000E+00  9.000E+00
      13     1     6     6     0     0  1.539109859E+01  3.638920906E+01 -4.598035651E+01  6.062387019E+01  6.743495762E-07  0.00000E+00  9.000E+00
     -14     1     6     6     0     0 -6.248003762E+01  4.534503121E+01 -1.511949817E+01  7.866718618E+01  1.617033478E-06  0.00000E+00  9.000E+00
       5     1     3     3   502     0 -1.559007318E+01 -9.663133741E+01 -8.544787249E+00  9.836788928E+01  4.750000000E+00  0.00000E+00  9.000E+00
      -5     1     4     4     0   504  4.280036247E+01 -3.190831031E+01 -3.459128426E+01  6.378973853E+01  4.750000000E+00  0.00000E+00  9.000E+00
      -3     1     1     2     0   503  2.502492404E+01  2.325622097E+01  1.417681598E+02  1.458263000E+02  2.697398305E-06  0.00000E+00  9.000E+00
</event>
<event>
     13  10001  1.00000E+00  9.63230E+01 -1.00000E+00  1.26982E-01
       1    -1     0     0   503     0  0.000000000E+00  0.000000000E+00  3.025464572E+02  3.025464572E+02  0.000000000E+00  0.00000E+00  9.000E+00
      21    -1     0     0   502   503  0.000000000E+00  0.000000000E+00 -3.982392309E+02  3.982392309E+02  0.000000000E+00  0.00000E+00  9.000E+00
       6     2     1     2   502     0  4.061615747E+01  9.678781732E+01 -1.417874006E+02  2.463842950E+02  1.720000000E+02  0.00000E+00  9.000E+00
      -6     2     1     2     0   504 -5.248663631E+01 -1.923765371E+02 -9.807937065E+01  2.810109286E+02  1.720000000E+02  0.00000E+00  9.000E+00
      24     2     3     3     0     0 -4.141589979E+01  2.995319015E+01 -6.136140450E+01  1.133917043E+02  8.049836207E+01  0.00000E+00  9.000E+00
     -24     2     4     4     0     0  2.198720953E+01 -1.186980399E+02 -1.014070075E+02  1.760894802E+02  7.843125527E+01  0.00000E+00  9.000E+00
     -11     1     5     5     0     0  6.075198156E+00  2.500052224E+01  9.937906181E+00  2.758072016E+01  5.717076687E-07  0.00000E+00  9.000E+00
      12     1     5     5     0     0 -4.749109795E+01  4.952667912E+00 -7.129931068E+01  8.581098419E+01  9.536743164E-07  0.00000E+00  9.000E+00
      13     1     6     6     0     0  1.419407190E+01 -3.068579473E+01  8.703147970E+00  3.491180975E+01  6.848052319E-07  0.00000E+00  9.000E+00
     -14     1     6     6     0     0  7.793137631E+00 -8.801224516E+01 -1.101101554E+02  1.411776704E+02  2.336015456E-06  0.00000E+00  9.000E+00
       5     1     3     3   502     0  8.203205726E+01  6.683462717E+01 -8.042599611E+01  1.329925906E+02  4.750000000E+00  0.00000E+00  9.000E+00
      -5     1     4     4     0   504 -7.447384584E+01 -7.367849725E+01  3.327636824E+00  1.049214484E+02  4.750000000E+00  0.00000E+00  9.000E+00
       1     1     1     2   504     0  1.187047884E+01  9.558871982E+01  1.441739976E+02  1.733904645E+02  0.000000000E+00  0.00000E+00  9.000E+00
</event>
<event>
     13  10001  1.00000E+00  8.08383E+00 -1.00000E+00  2.14087E-01
      21    -1     0     0   503   511  0.000000000E+00  0.000000000E+00  2.808812177E+02  2.808812177E+02  0.000000000E+00  0.00000E+00  9.000E+00
      21    -1     0     0   502   503  0.000000000E+00  0.000000000E+00 -1.723026907E+02  1.723026907E+02  0.000000000E+00  0.00000E+00  9.000E+00
       6     2     1     2   502     0  3.958253377E+01 -9.260505379E+00  1.567101780E+02  2.362088352E+02  1.720000000E+02  0.00000E+00  9.000E+00
      -6     2     1     2     0   504 -3.174225755E+01  7.291148571E+00 -7.386488561E+01  1.900019818E+02  1.720000000E+02  0.00000E+00  9.000E+00
      24     2     3     3     0     0 -8.293867438E+00 -5.838848311E+01  1.253855682E+02  1.606475907E+02  8.129024844E+01  0.00000E+00  9.000E+00
     -24     2     4     4     0     0 -2.082621809E+01 -2.359380522E+01 -1.107426902E+02  1.404482205E+02  8.044476483E+01  0.00000E+00  9.000E+00
     -11     1     5     5     0     0  9.131048765E+00  2.712128589E+00  8.462691992E+01  8.516130147E+01  9.536743164E-07  0.00000E+00  9.000E+00
      12     1     5     5     0     0 -1.742491620E+01 -6.110061170E+01  4.075864830E+01  7.548628926E+01  2.078484985E-06  0.00000E+00  9.000E+00
      13     1     6     6     0     0 -7.488765277E+00 -3.669644208E+01 -1.109489010E+01  3.906158027E+01  1.168007728E-06  0.00000E+00  9.000E+00
     -14     1     6     6     0     0 -1.333745282E+01  1.310263686E+01 -9.964780014E+01  1.013866402E+02  1.348699152E-06  0.00000E+00  9.000E+00
       5     1     3     3   502     0  4.787640120E+01  4.912797773E+01  3.132460974E+01  7.556124445E+01  4.750000000E+00  0.00000E+00  9.000E+00
      -5     1     4     4     0   504 -1.091603946E+01  3.088495379E+01  3.687780462E+01  4.955376133E+01  4.750000000E+00  0.00000E+00  9.000E+00
      21     1     1     2   504   511 -7.840276216E+00  1.969356808E+00  2.573323467E+01  2.697309148E+01  4.768371582E-07  0.00000E+00  9.000E+00
</event>
<event>
     13  10001  1.00000E+00  2.30683E+00 -1.00000E+00  3.56508E-01
      -1    -1     0     0     0   512  0.000000000E+00  0.000000000E+00  7.051614045E+01  7.051614045E+01  0.000000000E+00  0.00000E+00  9.000E+00
       1    -1     0     0   513     0  0.000000000E+00  0.000000000E+00 -7.880174020E+02  7.880174020E+02  0.000000000E+00  0.00000E+00  9.000E+00
       6     2     1     2   502     0 -9.913604854E+00 -1.177342762E+02 -5.254493003E+02  5.653676738E+02  1.720000000E+02  0.00000E+00  9.000E+00
      -6     2     1     2     0   512  1.221731334E+01  1.178541556E+02 -1.654173261E+02  2.664315231E+02  1.720000000E+02  0.00000E+00  9.000E+00
      24     2     3     3     0     0 -6.288432794E+01 -6.834680035E+01 -2.326273478E+02  2.636852603E+02  8.239362655E+01  0.00000E+00  9.000E+00
     -24     2     4     4     0     0 -5.009873777E+01  9.669222686E+01 -6.986503757E+01  1.503112415E+02  7.650539585E+01  0.00000E+00  9.000E+00
     -11     1     5     5     0     0 -5.796321643E+01 -2.370714951E+01 -1.959108164E+02  2.056764726E+02  3.814697266E-06  0.00000E+00  9.000E+00
      12     1     5     5     0     0 -4.921111505E+00 -4.463965084E+01 -3.671653146E+01  5.800878768E+01  1.261592536E-06  0.00000E+00  9.000E+00
      13     1     6     6     0     0 -2.686342155E+01  7.292008775E+01 -5.544158086E+00  7.790840971E+01  6.556510925E-07  0.00000E+00  9.000E+00
     -14     1     6     6     0     0 -2.323531622E+01  2.377213911E+01 -6.432087948E+01  7.240283182E+01  1.348699152E-06  0.00000E+00  9.000E+00
       5     1     3     3   502     0  5.297072309E+01 -4.938747581E+01 -2.928219525E+02  3.016824135E+02  4.750000000E+00  0.00000E+00  9.000E+00
      -5     1     4     4     0   512  6.231605111E+01  2.116192877E+01 -9.555228856E+01  1.161202816E+02  4.750000000E+00  0.00000E+00  9.000E+00
      21     1     1     2   513   502 -2.303708488E+00 -1.198794696E-01 -2.663463507E+01  2.673434550E+01  3.371747881E-07  0.00000E+00  9.000E+00
</event>
<event>
     13  10001  1.00000E+00  8.66471E+00 -1.00000E+00  2.09972E-01
      21    -1     0     0   511   512  0.000000000E+00  0.000000000E+00  5.315994691E+01  5.315994691E+01  0.000000000E+00  0.00000E+00  9.000E+00
       2    -1     0     0   502     0  0.000000000E+00  0.000000000E+00 -1.150449090E+03  1.150449090E+03  0.000000000E+00  0.00000E+00  9.000E+00
       6     2     1     2   502     0  1.721619741E+00 -1.053164857E+02 -7.837454606E+02  8.092808370E+02  1.720000000E+02  0.00000E+00  9.000E+00
      -6     2     1     2     0   512 -1.025062779E+01  1.068439912E+02 -3.230912733E+02  3.814350334E+02  1.720000000E+02  0.00000E+00  9.000E+00
      24     2     3     3     0     0  3.972169930E+01 -1.244987150E+02 -5.033202621E+02  5.256035231E+02  7.648551379E+01  0.00000E+00  9.000E+00
     -24     2     4     4     0     0 -3.321731234E+01  1.386918783E+02 -2.455847243E+02  2.944201833E+02  7.766956019E+01  0.00000E+00  9.000E+00
     -11     1     5     5     0     0  1.661921884E+01  3.040131575E+00 -1.147169499E+02  1.159543851E+02  1.348699152E-06  0.00000E+00  9.000E+00
      12     1     5     5     0     0  2.310248046E+01 -1.275388466E+02 -3.886033122E+02  4.096491380E+02  0.000000000E+00  0.00000E+00  9.000E+00
      13     1     6     6     0     0 -9.757950814E+00  3.130727887E+01 -9.722942923E+00  3.420378536E+01  1.221531721E-06  0.00000E+00  9.000E+00
     -14     1     6     6     0     0 -2.345936152E+01  1.073845994E+02 -2.358617814E+02  2.602163979E+02  4.672030912E-06  0.00000E+00  9.000E+00
       5     1     3     3   502     0 -3.800007956E+01  1.918222932E+01 -2.804251985E+02  2.836773139E+02  4.750000000E+00  0.00000E+00  9.000E+00
      -5     1     4     4     0   512  2.296668455E+01 -3.184788702E+01 -7.750654900E+01  8.701485014E+01  4.750000000E+00  0.00000E+00  9.000E+00
       2     1     1     2   511     0  8.529008047E+00 -1.527505525E+00  9.547590818E+00  1.289316648E+01  2.064765462E-07  0.00000E+00  9.000E+00
</event>
<event>
     13  10001  1.00000E+00  2.80364E+02 -1.00000E+00  1.08308E-01
      21    -1     0     0   502   503  0.000000000E+00  0.000000000E+00  1.048430357E+02  1.048430357E+02  0.000000000E+00  0.00000E+00  9.000E+00
       1    -1     0     0   503     0  0.000000000E+00  0.000000000E+00 -1.881484230E+03  1.881484230E+03  0.000000000E+00  0.00000E+00  9.000E+00
       6     2     1     2   502     0 -1.180239219E+02  1.310994401E+01 -2.428286668E+02  3.203923816E+02  1.720000000E+02  0.00000E+00  9.000E+00
      -6     2     1     2     0   504 -1.522094693E+02 -8.779480901E+01 -2.454755629E+02  3.474448201E+02  1.720000000E+02  0.00000E+00  9.000E+00
      24     2     3     3     0     0 -1.030476126E+02  6.939292085E+01 -1.923169121E+02  2.431520865E+02  8.187157363E+01  0.00000E+00  9.000E+00
     -24     2     4     4     0     0 -2.350221021E+01 -8.175925387E+01 -1.028770224E+02  1.551978625E+02  7.915658719E+01  0.00000E+00  9.000E+00
     -11     1     5     5     0     0 -3.570954742E+01 -1.660778748E+01 -5.629122522E+01  6.870001760E+01  0.000000000E+00  0.00000E+00  9.000E+00
      12     1     5     5     0     0 -6.733806519E+01  8.600070833E+01 -1.360256869E+02  1.744520689E+02  4.264961200E-06  0.00000E+00  9.000E+00
      13     1     6     6     0     0 -1.999876932E+01 -6.615916310E+01 -1.156530934E+02  1.347316728E+02  1.348699152E-06  0.00000E+00  9.000E+00
     -14     1     6     6     0     0 -3.503440890E+00 -1.560009078E+01  1.277607099E+01  2.046618969E+01  6.743495762E-07  0.00000E+00  9.000E+00
       5     1     3     3   502     0 -1.497630924E+01 -5.628297684E+01 -5.051175470E+01  7.724029507E+01  4.750000000E+00  0.00000E+00  9.000E+00
      -5     1     4     4     0   504 -1.287072591E+02 -6.035555134E+00 -1.425985405E+02  1.922469576E+02  4.750000000E+00  0.00000E+00  9.000E+00
       1     1     1     2   504     0  2.702333912E+02  7.468486499E+01 -1.288336965E+03  1.318490064E+03  2.642899792E-05  0.00000E+00  9.000E+00
</event>
<event>
     13  10001  1.00000E+00  5.02987E+01 -1.00000E+00  1.41959E-01
      21    -1     0     0   502   503  0.000000000E+00  0.000000000E+00  1.571445757E+02  1.571445757E+02  0.000000000E+00  0.00000E+00  9.000E+00
      21    -1     0     0   503   511  0.000000000E+00  0.000000000E+00 -4.711905256E+02  4.711905256E+02  0.000000000E+00  0.00000E+00  9.000E+00
       6     2     1     2   502     0  1.239189344E+02 -7.366513441E+01 -1.060585396E+02  2.482234238E+02  1.720000000E+02  0.00000E+00  9.000E+00
      -6     2     1     2     0   504 -1.712732509E+02  9.062168620E+01 -1.369311629E+02  2.930545339E+02  1.720000000E+02  0.00000E+00  9.000E+00
      24     2     3     3     0     0  6.510122825E+01  2.503889511E+01 -7.008391728E+01  1.277296732E+02  8.085788620E+01  0.00000E+00  9.000E+00
     -24     2     4     4     0     0 -1.802009295E+02  8.327585129E+01 -7.182730782E+01  2.267617049E+02  8.279170396E+01  0.00000E+00  9.000E+00
     -11     1     5     5     0     0  2.780653297E+01  2.575494834E+01  1.015999850E+01  3.923960002E+01  7.251217997E-07  0.00000E+00  9.000E+00
      12     1     5     5     0     0  3.729469528E+01 -7.160532311E-01 -8.024391578E+01  8.849007316E+01  1.348699152E-06  0.00000E+00  9.000E+00
      13     1     6     6     0     0 -2.640404840E+01  4.241160693E+01  4.707454605E+00  5.018045739E+01  7.862392639E-07  0.00000E+00  9.000E+00
     -14     1     6     6     0     0 -1.537968811E+02  4.086424436E+01 -7.653476242E+01  1.765812475E+02  3.568322551E-06  0.00000E+00  9.000E+00
       5     1     3     3   502     0  5.881770611E+01 -9.870402952E+01 -3.597462227E+01  1.204937506E+02  4.750000000E+00  0.00000E+00  9.000E+00
      -5     1     4     4     0   504  8.927678646E+00  7.345834907E+00 -6.510385506E+01  6.629282903E+01  4.750000000E+00  0.00000E+00  9.000E+00
      21     1     1     2   504   511  4.735431650E+01 -1.695655179E+01 -7.105624751E+01  8.705714359E+01  1.348699152E-06  0.00000E+00  9.000E+00
</event>
<event>
     13  10001  1.00000E+00  3.74201E+01 -1.00000E+00  1.50051E-01
      21    -1     0     0   502   512  0.000000000E+00  0.000000000E+00  3.922537974E+02  3.922537974E+02  0.000000000E+00  0.00000E+00  9.000E+00
      21    -1     0     0   503   504  0.000000000E+00  0.000000000E+00 -6.357787115E+02  6.357787115E+02  0.000000000E+00  0.00000E+00  9.000E+00
       6     2     1     2   502     0 -1.950517630E+01  3.035770192E+02 -4.545515740E+02  5.733590428E+02  1.720000000E+02  0.00000E+00  9.000E+00
      -6     2     1     2     0   504 -1.293456775E+01 -2.849242908E+02  1.162395209E+02  3.527673181E+02  1.720000000E+02  0.00000E+00  9.000E+00
      24     2     3     3     0     0  1.355378894E+01  1.196594076E+02 -2.926949275E+02  3.260965920E+02  7.852762382E+01  0.00000E+00  9.000E+00
     -24     2     4     4     0     0 -5.099420090E+01 -2.194847654E+02  3.654233490E+01  2.427442700E+02  8.255584556E+01  0.00000E+00  9.000E+00
     -11     1     5     5     0     0 -1.146254969E+01  1.084320564E+02 -1.829496243E+02  2.129776184E+02  0.000000000E+00  0.00000E+00  9.000E+00
      12     1     5     5     0     0  2.501633863E+01  1.122735118E+01 -1.097453033E+02  1.131189737E+02  2.336015456E-06  0.00000E+00  9.000E+00
      13     1     6     6     0     0 -2.983184621E+01 -1.712375961E+01  1.692673317E+01  3.833635986E+01  5.331201500E-07  0.00000E+00  9.000E+00
     -14     1     6     6     0     0 -2.116235469E+01 -2.023610057E+02  1.961560173E+01  2.044079102E+02  1.922192037E-06  0.00000E+00  9.000E+00
       5     1     3     3   502     0 -3.305896524E+01  1.839176116E+02 -1.618566465E+02  2.472624507E+02  4.750000000E+00  0.00000E+00  9.000E+00
      -5     1     4     4     0   504  3.805963314E+01 -6.543952542E+01  7.969718597E+01  1.100230481E+02  4.750000000E+00  0.00000E+00  9.000E+00
      21     1     1     2   503   512  3.243974405E+01 -1.865272838E+01  9.478713910E+01  1.019061480E+02  1.348699152E-06  0.00000E+00  9.000E+00
</event>
<event>
     13  10001  1.00000E+00  5.56515E+01 -1.00000E+00  1.39394E-01
      21    -1     0     0   502   503  0.000000000E+00  0.000000000E+00  1.972829412E+02  1.972829412E+02  0.000000000E+00  0.00000E+00  9.000E+00
      21    -1     0     0   511   504  0.000000000E+00  0.000000000E+00 -6.231064088E+02  6.231064088E+02  0.000000000E+00  0.00000E+00  9.000E+00
       6     2     1     2   502     0 -7.876432469E+01 -7.776124366E+01 -3.940804337E+02  4.439977681E+02  1.720000000E+02  0.00000E+00  9.000E+00
      -6     2     1     2     0   504  9.113205116E+01  2.350139816E+01  1.095073228E+02  2.245734183E+02  1.720000000E+02  0.00000E+00  9.000E+00
      24     2     3     3     0     0 -4.584377765E+01  1.703116344E+01 -1.308914397E+02  1.622880382E+02  8.254166147E+01  0.00000E+00  9.000E+00
     -24     2     4     4     0     0  1.084791831E+02  4.908359616E+01  4.132076047E+01  1.495578091E+02  8.051832363E+01  0.00000E+00  9.000E+00
     -11     1     5     5     0     0 -2.379197618E+01  4.107840535E+01 -1.180273687E+02  1.272161675E+02  1.348699152E-06  0.00000E+00  9.000E+00
      12     1     5     5     0     0 -2.205180147E+01 -2.404724190E+01 -1.286407103E+01  3.507187071E+01  6.951036328E-07  0.00000E+00  9.000E+00
      13     1     6     6     0     0  4.036908956E+01  1.037836043E+01 -2.352467174E+01  4.786213469E+01  0.000000000E+00  0.00000E+00  9.000E+00
     -14     1     6     6     0     0  6.811009355E+01  3.870523573E+01  6.484543221E+01  1.016956744E+02  9.536743164E-07  0.00000E+00  9.000E+00
       5     1     3     3   502     0 -3.292054704E+01 -9.479240711E+01 -2.631889940E+02  2.817097299E+02  4.750000000E+00  0.00000E+00  9.000E+00
      -5     1     4     4     0   504 -1.734713194E+01 -2.558219800E+01  6.818656234E+01  7.501560921E+01  4.750000000E+00  0.00000E+00  9.000E+00
      21     1     1     2   511   503 -1.236772648E+01  5.425984551E+01 -1.412503567E+02  1.518181635E+02  2.697398305E-06  0.00000E+00  9.000E+00
</event>
<event>
     13  10001  1.00000E+00  2.26173E+02 -1.00000E+00  1.11599E-01
      21    -1     0     0   513   512  0.000000000E+00  0.000000000E+00  6.153208416E+02  6.153208416E+02  0.000000000E+00  0.00000E+00  9.000E+00
       1    -1     0     0   502     0  0.000000000E+00  0.000000000E+00 -3.624536614E+02  3.624536614E+02  0.000000000E+00  0.00000E+00  9.000E+00
       6     2     1     2   502     0 -1.129915524E+02 -7.120968893E+01 -1.278757307E+02  2.525353702E+02  1.720000000E+02  0.00000E+00  9.000E+00
      -6     2     1     2     0   512  2.260415379E+02 -1.246823811E+02  3.906732443E+02  4.988487314E+02  1.720000000E+02  0.00000E+00  9.000E+00
      24     2     3     3     0     0  5.373526705E-01  2.016745993E+00 -6.637290494E+01  1.040224646E+02  8.006843711E+01  0.00000E+00  9.000E+00
     -24     2     4     4     0     0  2.476948652E+02 -1.197323161E+02  3.714523805E+02  4.690934995E+02  7.989534677E+01  0.00000E+00  9.000E+00
     -11     1     5     5     0     0 -2.863947584E+01  7.322164481E+00  1.864738995E+00  2.961943485E+01  6.283273888E-07  0.00000E+00  9.000E+00
      12     1     5     5     0     0  2.917682852E+01 -5.305418488E+00 -6.823764393E+01  7.440302976E+01  9.536743164E-07  0.00000E+00  9.000E+00
      13     1     6     6     0     0 -1.189680163E+00  7.055142309E+00  9.869677179E+00  1.219019686E+01  5.196212463E-07  0.00000E+00  9.000E+00
     -14     1     6     6     0     0  2.488845454E+02 -1.267874584E+02  3.615827034E+02  4.569033026E+02  9.344061824E-06  0.00000E+00  9.000E+00
       5     1     3     3   502     0 -1.135289051E+02 -7.322643492E+01 -6.150282579E+01  1.485129056E+02  4.750000000E+00  0.00000E+00  9.000E+00
      -5     1     4     4     0   512 -2.165332729E+01 -4.950064969E+00  1.922086376E+01  2.975523197E+01  4.750000000E+00  0.00000E+00  9.000E+00
       1     1     1     2   513     0 -1.130499855E+02  1.958920700E+02 -9.930333350E+00  2.263904014E+02  4.281588792E-06  0.00000E+00  9.000E+00
</event>
<event>
     13  10001  1.00000E+00  7.88307E+01 -1.00000E+00  1.31245E-01
      21    -1     0     0   502   503  0.000000000E+00  0.000000000E+00  4.660825615E+02  4.660825615E+02  0.000000000E+00  0.00000E+00  9.000E+00
       2    -1     0     0   503     0  0.000000000E+00  0.000000000E+00 -5.716651928E+02  5.716651928E+02  0.000000000E+00  0.00000E+00  9.000E+00
       6     2     1     2   502     0  2.686208837E+01 -4.726996322E+01  3.612535984E+02  4.037872999E+02  1.720000000E+02  0.00000E+00  9.000E+00
      -6     2     1     2     0   504  2.100262053E+01 -1.536585550E+01 -1.422784133E+01  1.745383942E+02  1.720000000E+02  0.00000E+00  9.000E+00
      24     2     3     3     0     0  4.557606752E+01 -1.666593222E+01  3.549861448E+02  3.670631498E+02  7.978259012E+01  0.00000E+00  9.000E+00
     -24     2     4     4     0     0 -3.676160440E+01  3.428088241E+01 -3.249026057E+01  9.606812772E+01  7.514568301E+01  0.00000E+00  9.000E+00
     -11     1     5     5     0     0  6.445423945E+01 -2.915764159E+01  2.700738972E+02  2.791852916E+02  5.394796609E-06  0.00000E+00  9.000E+00
      12     1     5     5     0     0 -1.887817193E+01  1.249170938E+01  8.491224755E+01  8.787785821E+01  2.132480600E-06  0.00000E+00  9.000E+00
      13     1     6     6     0     0 -1.061806558E+01  2.527324452E+01  2.187721677E+01  3.507267909E+01  8.596304120E-07  0.00000E+00  9.000E+00
     -14     1     6     6     0     0 -2.614353882E+01  9.007637892E+00 -5.436747733E+01  6.099544863E+01  2.336015456E-06  0.00000E+00  9.000E+00
       5     1     3     3   502     0 -1.871397915E+01 -3.060403101E+01  6.267453600E+00  3.672415015E+01  4.750000000E+00  0.00000E+00  9.000E+00
      -5     1     4     4     0   504  5.776422493E+01 -4.964673791E+01  1.826241924E+01  7.847026649E+01  4.750000000E+00  0.00000E+00  9.000E+00
       2     1     1     2   504     0 -4.786470890E+01  6.263581872E+01 -4.526083884E+02  4.594220602E+02  5.394796609E-06  0.00000E+00  9.000E+00
</event>
<event>
     13  10001  1.00000E+00  4.94013E+01 -1.00000E+00  1.42426E-01
       2    -1     0     0   502     0  0.000000000E+00  0.000000000E+00  7.383386331E+02  7.383386331E+02  0.000000000E+00  0.00000E+00  9.000E+00
      21    -1     0     0   503   504  0.000000000E+00  0.000000000E+00 -1.174354307E+02  1.174354307E+02  0.000000000E+00  0.00000E+00  9.000E+00
       6     2     1     2   502     0 -2.075506303E+01  2.421630431E+01  1.624581682E+01  1.756847421E+02  1.720000000E+02  0.00000E+00  9.000E+00
      -6     2     1     2     0   504 -2.824551642E+01 -1.793696191E+01  1.751562317E+02  2.477564314E+02  1.720000000E+02  0.00000E+00  9.000E+00
      24     2     3     3     0     0 -1.181399909E+00 -3.323596631E+01 -3.233018114E+01  9.779968725E+01  8.610175986E+01  0.00000E+00  9.000E+00
     -24     2     4     4     0     0  1.662438689E+01 -2.005749782E+00  1.818367655E+02  1.994417983E+02  8.019992718E+01  0.00000E+00  9.000E+00
     -11     1     5     5     0     0 -2.811086343E+01  7.334015452E+00  1.248575488E+01  3.162123496E+01  1.025477084E-06  0.00000E+00  9.000E+00
      12     1     5     5     0     0  2.692946352E+01 -4.056998176E+01 -4.481593603E+01  6.617845229E+01  2.286830675E-06  0.00000E+00  9.000E+00
      13     1     6     6     0     0 -2.302790059E+01 -2.005954338E+01  1.198184314E+02  1.236492054E+02  2.697398305E-06  0.00000E+00  9.000E+00
     -14     1     6     6     0     0  3.965228749E+01  1.805379360E+01  6.201833410E+01  7.579259285E+01  2.132480600E-06  0.00000E+00  9.000E+00
       5     1     3     3   502     0 -1.957366312E+01  5.745227062E+01  4.857599796E+01  7.788505483E+01  4.750000000E+00  0.00000E+00  9.000E+00
      -5     1     4     4     0   504 -4.486990332E+01 -1.593121212E+01 -6.680533839E+00  4.831463315E+01  4.750000000E+00  0.00000E+00  9.000E+00
       2     1     1     2   503     0  4.900057945E+01 -6.279342407E+00  4.295011538E+02  4.323328904E+02  0.000000000E+00  0.00000E+00  9.000E+00
</event>
<event>
     13  10001  1.00000E+00  4.69878E+01 -1.00000E+00  1.43741E-01
       2    -1     0     0   502     0  0.000000000E+00  0.000000000E+00  1.516351876E+03  1.516351876E+03  0.000000000E+00  0.00000E+00  9.000E+00
      21    -1     0     0   503   504  0.000000000E+00  0.000000000E+00 -3.647126760E+02  3.647126760E+02  0.000000000E+00  0.00000E+00  9.000E+00
       6     2     1     2   502     0  1.153809608E+02  3.608302891E+00 -2.980995537E+02  3.630056885E+02  1.720000000E+02  0.00000E+00  9.000E+00
      -6     2     1     2     0   504 -1.217945507E+02 -5.015637487E+01  3.147674411E+02  3.821153183E+02  1.720000000E+02  0.00000E+00  9.000E+00
      24     2     3     3     0     0  1.374958073E+02  7.411533382E+00 -1.712046149E+02  2.340544613E+02  8.068731525E+01  0.00000E+00  9.000E+00
     -24     2     4     4     0     0  1.011053654E+00 -4.768927406E+01  1.428750444E+02  1.707936167E+02  8.051019868E+01  0.00000E+00  9.000E+00
     -11     1     5     5     0     0  1.277565143E+01 -2.334484299E+01 -1.121890124E+01  2.888014385E+01  9.233911863E-07  0.00000E+00  9.000E+00
      12     1     5     5     0     0  1.247201559E+02  3.075637638E+01 -1.599857137E+02  2.051743175E+02  6.031565972E-06  0.00000E+00  9.000E+00
      13     1     6     6     0     0 -2.585670081E+01 -5.511205453E+01  1.206699291E+02  1.351559814E+02  0.000000000E+00  0.00000E+00  9.000E+00
     -14     1     6     6     0     0  2.686775447E+01  7.422780475E+00  2.220511538E+01  3.563763529E+01  9.233911863E-07  0.00000E+00  9.000E+00
       5     1     3     3   502     0 -2.211484651E+01 -3.803230492E+00 -1.268949388E+02  1.289512272E+02  4.750000000E+00  0.00000E+00  9.000E+00
      -5     1     4     4     0   504 -1.228056044E+02 -2.467100812E+00  1.718923967E+02  2.113217016E+02  4.750000000E+00  0.00000E+00  9.000E+00
       2     1     1     2   503     0  6.413589893E+00  4.654807198E+01  1.134971313E+03  1.135943545E+03  0.000000000E+00  0.00000E+00  9.000E+00
</event>
<event>
     13  10001  1.00000E+00  5.54629E+01 -1.00000E+00  1.39478E-01
       2    -1     0     0   502     0  0.000000000E+00  0.000000000E+00  4.152312717E+02  4.152312717E+02  0.000000000E+00  0.00000E+00  9.000E+00
      21    -1     0     0   503   504  0.000000000E+00  0.000000000E+00 -2.527843778E+02  2.527843778E+02  0.000000000E+00  0.00000E+00  9.000E+00
       6     2     1     2   502     0  1.502000812E+01 -1.028996324E+02 -7.441050282E+01  2.143241888E+02  1.720000000E+02  0.00000E+00  9.000E+00
      -6     2     1     2     0   504 -6.640323429E+01  1.237778497E+02  1.232467858E+01  2.224100792E+02  1.720000000E+02  0.00000E+00  9.000E+00
      24     2     3     3     0     0  3.120852783E+01 -2.087994935E+01 -9.304808505E+01  1.285383010E+02  8.033806200E+01  0.00000E+00  9.000E+00
     -24     2     4     4     0     0  2.828490056E+01  5.004703491E+01 -1.909779249E+01  9.826496196E+01  7.737270687E+01  0.00000E+00  9.000E+00
     -11     1     5     5     0     0  4.663700834E+01  5.571436224E-01 -1.979137806E+01  5.066576360E+01  4.768371582E-07  0.00000E+00  9.000E+00
      12     1     5     5     0     0 -1.542848051E+01 -2.143709297E+01 -7.325670699E+01  7.787253742E+01  0.000000000E+00  0.00000E+00  9.000E+00
      13     1     6     6     0     0  7.930833365E+00  5.120355497E+01  1.889182710E+01  5.515073245E+01  1.192092896E-06  0.00000E+00  9.000E+00
     -14     1     6     6     0     0  2.035406720E+01 -1.156520060E+00 -3.798961958E+01  4.311422951E+01  4.768371582E-07  0.00000E+00  9.000E+00
       5     1     3     3   502     0 -1.618851971E+01 -8.201968304E+01  1.863758223E+01  8.578588781E+01  4.750000000E+00  0.00000E+00  9.000E+00
      -5     1     4     4     0   504 -9.468813485E+01  7.373081483E+01  3.142247106E+01  1.241451172E+02  4.750000000E+00  0.00000E+00  9.000E+00
       2     1     1     2   503     0  5.138322617E+01 -2.087821735E+01  2.245327182E+02  2.312813815E+02  3.814697266E-06  0.00000E+00  9.000E+00
</event>
<event>
     13  10001  1.00000E+00  6.56095E+01 -1.00000E+00  1.35415E-01
      21    -1     0     0   511   504  0.000000000E+00  0.000000000E+00  1.023707555E+03  1.023707555E+03  0.000000000E+00  0.00000E+00  9.000E+00
      21    -1     0     0   502   503  0.000000000E+00  0.000000000E+00 -6.144424185E+01  6.144424185E+01  0.000000000E+00  0.00000E+00  9.000E+00
       6     2     1     2   502     0 -1.074706742E+02 -8.292982097E+01  3.894788860E+02  4.468837698E+02  1.720000000E+02  0.00000E+00  9.000E+00
      -6     2     1     2     0   504  6.165575603E+01  3.596601181E+01  2.670195294E+02  3.255432618E+02  1.720000000E+02  0.00000E+00  9.000E+00
      24     2     3     3     0     0 -1.140801995E+01 -5.134200619E+01  6.217232537E+01  1.042790840E+02  6.513512717E+01  0.00000E+00  9.000E+00
     -24     2     4     4     0     0  3.074522601E+01 -2.449919253E+01  2.333151365E+02  2.495824140E+02  7.943518814E+01  0.00000E+00  9.000E+00
     -11     1     5     5     0     0  1.165094472E+01 -1.577052849E+00  4.543931401E+01  4.693573123E+01  6.743495762E-07  0.00000E+00  9.000E+00
      12     1     5     5     0     0 -2.305896468E+01 -4.976495335E+01  1.673301136E+01  5.734335273E+01  1.410503336E-06  0.00000E+00  9.000E+00
      13     1     6     6     0     0 -1.126296625E+01 -3.886846666E+01  1.476571824E+02  1.531021085E+02  0.000000000E+00  0.00000E+00  9.000E+00
     -14     1     6     6     0     0  4.200819225E+01  1.436927413E+01  8.565795404E+01  9.648030548E+01  0.000000000E+00  0.00000E+00  9.000E+00
       5     1     3     3   502     0 -9.606265427E+01 -3.158781478E+01  3.273065607E+02  3.426046858E+02  4.750000000E+00  0.00000E+00  9.000E+00
      -5     1     4     4     0   504  3.091053003E+01  6.046520434E+01  3.370439290E+01  7.596084783E+01  4.750000000E+00  0.00000E+00  9.000E+00
      21     1     1     2   511   503  4.581491819E+01  4.696380916E+01  3.057648978E+02  3.127247653E+02  0.000000000E+00  0.00000E+00  9.000E+00
</event>
<event>
     13  10001  1.00000E+00  3.99179E+01 -1.00000E+00  1.48203E-01
      21    -1     0     0   512   504  0.000000000E+00  0.000000000E+00  3.819292926E+02  3.819292926E+02  0.000000000E+00  0.00000E+00  9.000E+00
      21    -1     0     0   502   503  0.000000000E+00  0.000000000E+00 -8.101818768E+02  8.101818768E+02  0.000000000E+00  0.00000E+00  9.000E+00
       6     2     1     2   502     0  1.346351422E+02  9.152238665E+01 -3.996579228E+02  4.645572344E+02  1.720000000E+02  0.00000E+00  9.000E+00
      -6     2     1     2     0   504 -9.474197610E+01 -9.292875399E+01 -3.455105437E+02  4.081339623E+02  1.720000000E+02  0.00000E+00  9.000E+00
      24     2     3     3     0     0  9.849672642E+01  1.269669235E+02 -3.502785807E+02  3.936828228E+02  8.042932364E+01  0.00000E+00  9.000E+00
     -24     2     4     4     0     0 -2.106704010E+01 -1.062097630E+02 -1.589877126E+02  2.070923984E+02  7.671919435E+01  0.00000E+00  9.000E+00
     -11     1     5     5     0     0  1.047434567E+01  7.716011540E+01 -1.354280882E+02  1.562183164E+02  4.264961200E-06  0.00000E+00  9.000E+00
      12     1     5     5     0     0  8.802238075E+01  4.980680812E+01 -2.148504926E+02  2.374645064E+02  5.394796609E-06  0.00000E+00  9.000E+00
      13     1     6     6     0     0 -1.195478123E+01 -9.154881471E+00 -8.062446766E+01  8.201849447E+01  9.536743164E-07  0.00000E+00  9.000E+00
     -14     1     6     6     0     0 -9.112258869E+00 -9.705488148E+01 -7.836324494E+01  1.250739039E+02  3.015782986E-06  0.00000E+00  9.000E+00
       5     1     3     3   502     0  3.613841577E+01 -3.544453688E+01 -4.937934206E+01  7.087441154E+01  4.750000000E+00  0.00000E+00  9.000E+00
      -5     1     4     4     0   504 -7.367493600E+01  1.328100897E+01 -1.865228311E+02  2.010415639E+02  4.750000000E+00  0.00000E+00  9.000E+00
      21     1     1     2   512   503 -3.989316609E+01  1.406367341E+00  3.169158823E+02  3.194199728E+02  0.000000000E+00  0.00000E+00  9.000E+00
</event>
<event>
     13  10001  1.00000E+00  2.53240E+01 -1.00000E+00  1.62313E-01
      21    -1     0     0   503   504  0.000000000E+00  0.000000000E+00  5.432694350E+02  5.432694350E+02  0.000000000E+00  0.00000E+00  9.000E+00
      21    -1     0     0   511   503  0.000000000E+00  0.000000000E+00 -1.314198397E+02  1.314198397E+02  0.000000000E+00  0.00000E+00  9.000E+00
       6     2     1     2   502     0  7.228444611E+01 -1.074380328E+02  3.467041638E+02  4.081124223E+02  1.720000000E+02  0.00000E+00  9.000E+00
      -6     2     1     2     0   504 -5.362480106E+01  1.245588904E+02  8.443604706E+01  2.347423748E+02  1.720000000E+02  0.00000E+00  9.000E+00
      24     2     3     3     0     0 -7.254379719E+00 -9.159965706E+01  1.688219154E+02  2.125569679E+02  9.075517770E+01  0.00000E+00  9.000E+00
     -24     2     4     4     0     0 -7.661668604E+01  1.437871894E+02  9.259000853E+01  2.033193921E+02  7.887327242E+01  0.00000E+00  9.000E+00
     -11     1     5     5     0     0  2.405157800E+01 -3.308511765E+01  1.256222185E+01  4.278916723E+01  6.743495762E-07  0.00000E+00  9.000E+00
      12     1     5     5     0     0 -3.130595772E+01 -5.851453940E+01  1.562596936E+02  1.697678007E+02  1.907348633E-06  0.00000E+00  9.000E+00
      13     1     6     6     0     0  1.250250424E+01  4.971254419E+01  3.022769370E+01  5.950935328E+01  1.261592536E-06  0.00000E+00  9.000E+00
     -14     1     6     6     0     0 -8.911919028E+01  9.407464520E+01  6.236231483E+01  1.438100388E+02  1.168007728E-06  0.00000E+00  9.000E+00
       5     1     3     3   502     0  7.953882583E+01 -1.583837579E+01  1.778822484E+02  1.955554544E+02  4.750000000E+00  0.00000E+00  9.000E+00
      -5     1     4     4     0   504  2.299188498E+01 -1.922829894E+01 -8.153961468E+00  3.142298271E+01  4.750000000E+00  0.00000E+00  9.000E+00
      21     1     1     2   511   502 -1.865964505E+01 -1.712085760E+01 -1.929061551E+01  3.183447761E+01  7.152557373E-07  0.00000E+00  9.000E+00
</event>
<event>
     13  10001  1.00000E+00  6.11429E+01 -1.00000E+00  1.37091E-01
      21    -1     0     0   512   504  0.000000000E+00  0.000000000E+00  4.743548895E+02  4.743548895E+02  0.000000000E+00  0.00000E+00  9.000E+00
      21    -1     0     0   502   503  0.000000000E+00  0.000000000E+00 -1.634288864E+02  1.634288864E+02  0.000000000E+00  0.00000E+00  9.000E+00
       6     2     1     2   502     0 -4.228785180E+01  5.747624533E+01 -6.097389002E+01  1.959428398E+02  1.720000000E+02  0.00000E+00  9.000E+00
      -6     2     1     2     0   504  3.341394940E+01  3.019314731E+00  3.002498506E+02  3.476486460E+02  1.720000000E+02  0.00000E+00  9.000E+00
      24     2     3     3     0     0 -8.718030406E+01  6.781441263E+01 -6.180920811E+01  1.496236188E+02  7.979755083E+01  0.00000E+00  9.000E+00
     -24     2     4     4     0     0  2.780750734E+01 -6.020948278E+01  1.196612120E+02  1.561698432E+02  7.531118767E+01  0.00000E+00  9.000E+00
     -11     1     5     5     0     0 -8.744802274E+01  8.189747049E+01 -4.571231059E+01  1.282340348E+02  3.438521648E-06  0.00000E+00  9.000E+00
      12     1     5     5     0     0  2.677186767E-01 -1.408305786E+01 -1.609689752E+01  2.138958396E+01  6.743495762E-07  0.00000E+00  9.000E+00
      13     1     6     6     0     0  1.538407786E+01  8.209436751E+00  6.619628809E+01  6.845446122E+01  1.907348633E-06  0.00000E+00  9.000E+00
     -14     1     6     6     0     0  1.242342948E+01 -6.841891953E+01  5.346492395E+01  8.771538202E+01  0.000000000E+00  0.00000E+00  9.000E+00
       5     1     3     3   502     0  4.489245227E+01 -1.033816730E+01  8.353180873E-01  4.631922095E+01  4.750000000E+00  0.00000E+00  9.000E+00
      -5     1     4     4     0   504  5.606442063E+00  6.322879752E+01  1.805886386E+02  1.914788028E+02  4.750000000E+00  0.00000E+00  9.000E+00
      21     1     1     2   512   503  8.873902394E+00 -6.049556006E+01  7.165004256E+01  9.419229018E+01  9.536743164E-07  0.00000E+00  9.000E+00
</event>
<event>
     13  10001  1.00000E+00  1.57603E+01 -1.00000E+00  1.80315E-01
      21    -1     0     0   511   503  0.000000000E+00  0.000000000E+00  8.020704881E+02  8.020704881E+02  0.000000000E+00  0.00000E+00  9.000E+00
      21    -1     0     0   503   504  0.000000000E+00  0.000000000E+00 -3.700130826E+02  3.700130826E+02  0.000000000E+00  0.00000E+00  9.000E+00
       6     2     1     2   502     0  2.073628681E+01  7.563815075E+01 -1.962665571E+02  2.724989631E+02  1.720000000E+02  0.00000E+00  9.000E+00
      -6     2     1     2     0   504 -6.128380335E+00 -6.972248477E+01 -7.193984255E+01  1.991434731E+02  1.720000000E+02  0.00000E+00  9.000E+00
      24     2     3     3     0     0 -4.000378731E+01  8.911445239E+01 -1.236783379E+02  1.767775998E+02  8.007683760E+01  0.00000E+00  9.000E+00
     -24     2     4     4     0     0 -5.210292534E+01 -1.134729633E+01 -8.095284245E+01  1.241426859E+02  7.755364464E+01  0.00000E+00  9.000E+00
     -11     1     5     5     0     0  1.348080768E-01  8.080786668E+01 -1.028571930E+02  1.308034084E+02  2.697398305E-06  0.00000E+00  9.000E+00
      12     1     5     5     0     0 -4.013859538E+01  8.306585710E+00 -2.082114485E+01  4.597419144E+01  1.039242493E-06  0.00000E+00  9.000E+00
      13     1     6     6     0     0 -3.935353778E+01  3.040980254E+01 -3.540417834E+01  6.104844691E+01  1.719260824E-06  0.00000E+00  9.000E+00
     -14     1     6     6     0     0 -1.274938756E+01 -4.175709888E+01 -4.554866411E+01  6.309423898E+01  6.743495762E-07  0.00000E+00  9.000E+00
       5     1     3     3   502     0  6.074007411E+01 -1.347630165E+01 -7.258821923E+01  9.572136324E+01  4.750000000E+00  0.00000E+00  9.000E+00
      -5     1     4     4     0   504  4.597454501E+01 -5.837518843E+01  9.012999893E+00  7.500078720E+01  4.750000000E+00  0.00000E+00  9.000E+00
      21     1     1     2   511   502 -1.460790647E+01 -5.915665980E+00  7.002638052E+02  7.004411345E+02  7.629394531E-06  0.00000E+00  9.000E+00
</event>
<event>
     13  10001  1.00000E+00  2.46833E+01 -1.00000E+00  1.63190E-01
      21    -1     0     0   512   503  0.000000000E+00  0.000000000E+00  7.072130812E+01  7.072130812E+01  0.000000000E+00  0.00000E+00  9.000E+00
      21    -1     0     0   503   504  0.000000000E+00  0.000000000E+00 -1.253109847E+03  1.253109847E+03  0.000000000E+00  0.00000E+00  9.000E+00
       6     2     1     2   502     0 -9.100928854E+01 -1.265879315E+02 -2.159576199E+02  3.170629095E+02  1.720000000E+02  0.00000E+00  9.000E+00
      -6     2     1     2     0   504  8.455176957E+01  1.504115504E+02 -9.379709226E+02  9.690954999E+02  1.720000000E+02  0.00000E+00  9.000E+00
      24     2     3     3     0     0 -1.070069431E+02 -1.136297275E+02 -1.055522403E+02  2.046540560E+02  7.987368998E+01  0.00000E+00  9.000E+00
     -24     2     4     4     0     0  4.746664072E+01  2.913169131E+01 -2.184090035E+02  2.384272928E+02  7.773894579E+01  0.00000E+00  9.000E+00
     -11     1     5     5     0     0 -4.264948682E+01  1.802701984E+00 -1.937509222E+01  4.687880821E+01  9.830249847E-07  0.00000E+00  9.000E+00
      12     1     5     5     0     0 -6.435745628E+01 -1.154324295E+02 -8.617714804E+01  1.577752478E+02  3.438521648E-06  0.00000E+00  9.000E+00
      13     1     6     6     0     0  9.991318144E+00 -2.355746636E+01 -3.110671988E+01  4.027913456E+01  1.066240300E-06  0.00000E+00  9.000E+00
     -14     1     6     6     0     0  3.747532258E+01  5.268915767E+01 -1.873022837E+02  1.981481582E+02  2.697398305E-06  0.00000E+00  9.000E+00
       5     1     3     3   502     0  1.599765456E+01 -1.295820396E+01 -1.104053797E+02  1.124088536E+02  4.750000000E+00  0.00000E+00  9.000E+00
      -5     1     4     4     0   504  3.708512885E+01  1.212798591E+02 -7.195619191E+02  7.306682071E+02  4.750000000E+00  0.00000E+00  9.000E+00
      21     1     1     2   512   502  6.457518974E+00 -2.382361890E+01 -2.845999591E+01  3.767274527E+01  6.743495762E-07  0.00000E+00  9.000E+00
</event>
<event>
     13  10001  1.00000E+00  3.35806E+01 -1.00000E+00  1.53256E-01
      21    -1     0     0   503   504  0.000000000E+00  0.000000000E+00  1.228003538E+02  1.228003538E+02  0.000000000E+00  0.00000E+00  9.000E+00
      21    -1     0     0   502   511  0.000000000E+00  0.000000000E+00 -6.236725432E+02  6.236725432E+02  0.000000000E+00  0.00000E+00  9.000E+00
       6     2     1     2   502     0  1.745296532E+02 -2.087072189E+01 -3.722502106E+02  4.461506541E+02  1.720000000E+02  0.00000E+00  9.000E+00
      -6     2     1     2     0   504 -1.452370190E+02  4.451332202E+00 -7.551123332E+01  2.374858994E+02  1.720000000E+02  0.00000E+00  9.000E+00
      24     2     3     3     0     0  1.708552361E+02 -3.026419672E+01 -3.845133989E+02  4.295769701E+02  8.110725016E+01  0.00000E+00  9.000E+00
     -24     2     4     4     0     0 -7.892069338E+01 -6.496085806E+00 -1.137720944E+02  1.599994038E+02  7.990647516E+01  0.00000E+00  9.000E+00
     -11     1     5     5     0     0  9.266610824E+01 -4.568597464E+01 -1.520322290E+02  1.838151641E+02  1.907348633E-06  0.00000E+00  9.000E+00
      12     1     5     5     0     0  7.818912786E+01  1.542177792E+01 -2.324811699E+02  2.457618061E+02  5.394796609E-06  0.00000E+00  9.000E+00
      13     1     6     6     0     0  6.208850446E+00 -1.442244053E+01  2.266303543E+00  1.586482733E+01  4.075406292E-07  0.00000E+00  9.000E+00
     -14     1     6     6     0     0 -8.512954382E+01  7.926354719E+00 -1.160383980E+02  1.441345765E+02  2.336015456E-06  0.00000E+00  9.000E+00
       5     1     3     3   502     0  3.674417127E+00  9.393474830E+00  1.226318836E+01  1.657368394E+01  4.750000000E+00  0.00000E+00  9.000E+00
      -5     1     4     4     0   504 -6.631632558E+01  1.094741801E+01  3.826086111E+01  7.748649555E+01  4.750000000E+00  0.00000E+00  9.000E+00
      21     1     1     2   503   511 -2.929263427E+01  1.641938969E+01 -5.311074553E+01  6.283634355E+01  0.000000000E+00  0.00000E+00  9.000E+00
</event>
<event>
     13  10001  1.00000E+00  1.26547E+02 -1.00000E+00  1.21612E-01
      21    -1     0     0   502   503  0.000000000E+00  0.000000000E+00  2.037295215E+02  2.037295215E+02  0.000000000E+00  0.00000E+00  9.000E+00
      21    -1     0     0   512   504  0.000000000E+00  0.000000000E+00 -3.291737228E+02  3.291737228E+02  0.000000000E+00  0.00000E+00  9.000E+00
       6     2     1     2   502     0  5.213759697E+01 -3.996572366E+01 -1.160080390E+01  1.844835135E+02  1.720000000E+02  0.00000E+00  9.000E+00
      -6     2     1     2     0   504  1.599379191E+01 -6.667472872E+01 -1.123960997E+01  1.855037726E+02  1.720000000E+02  0.00000E+00  9.000E+00
      24     2     3     3     0     0 -1.274150201E+01  3.146574922E+01 -1.113238609E+01  8.786811759E+01  8.027724972E+01  0.00000E+00  9.000E+00
     -24     2     4     4     0     0  8.935617620E+00 -8.773016483E+01  4.266859503E+01  1.270075652E+02  8.083245352E+01  0.00000E+00  9.000E+00
     -11     1     5     5     0     0 -2.216754921E+01  1.133050442E+01 -4.259880046E+01  4.934002807E+01  6.743495762E-07  0.00000E+00  9.000E+00
      12     1     5     5     0     0  9.426047201E+00  2.013524480E+01  3.146641438E+01  3.852808953E+01  9.536743164E-07  0.00000E+00  9.000E+00
      13     1     6     6     0     0 -2.446479915E+01 -5.198843246E+01 -6.286696397E+00  5.780005241E+01  3.576278687E-07  0.00000E+00  9.000E+00
     -14     1     6     6     0     0  3.340041677E+01 -3.574173237E+01  4.895529142E+01  6.920751282E+01  1.168007728E-06  0.00000E+00  9.000E+00
       5     1     3     3   502     0  6.487909898E+01 -7.143147288E+01 -4.684178193E-01  9.661539586E+01  4.750000000E+00  0.00000E+00  9.000E+00
      -5     1     4     4     0   504  7.058174290E+00  2.105543611E+01 -5.390820500E+01  5.849620740E+01  4.750000000E+00  0.00000E+00  9.000E+00
      21     1     1     2   512   503 -6.813138888E+01  1.066404524E+02 -1.026037875E+02  1.629159582E+02  3.303624740E-06  0.00000E+00  9.000E+00
</event>
<event>
     13  10001  1.00000E+00  5.94938E+01 -1.00000E+00  1.37752E-01
      21    -1     0     0   511   503  0.000000000E+00  0.000000000E+00  1.205988605E+02  1.205988605E+02  0.000000000E+00  0.00000E+00  9.000E+00
      21    -1     0     0   503   504  0.000000000E+00  0.000000000E+00 -7.207182257E+02  7.207182257E+02  0.000000000E+00  0.00000E+00  9.000E+00
       6     2     1     2   502     0  1.731346244E+01  1.162317287E+02 -1.246392599E+02  2.427519636E+02  1.720000000E+02  0.00000E+00  9.000E+00
      -6     2     1     2     0   504 -3.642908195E+01 -1.725709349E+02 -4.793442801E+02  5.389459569E+02  1.720000000E+02  0.00000E+00  9.000E+00
      24     2     3     3     0     0 -5.097818359E+01  1.001238505E+02 -8.406494801E+01  1.615605235E+02  8.007076022E+01  0.00000E+00  9.000E+00
     -24     2     4     4     0     0 -1.182410759E+00 -5.970807592E+01 -9.776684483E+01  1.394409452E+02  7.949194187E+01  0.00000E+00  9.000E+00
     -11     1     5     5     0     0 -6.244195517E+01  5.139470613E+01 -7.576333631E+01  1.108174026E+02  9.536743164E-07  0.00000E+00  9.000E+00
      12     1     5     5     0     0  1.146377158E+01  4.872914436E+01 -8.301611706E+00  5.074312097E+01  2.332971786E-06  0.00000E+00  9.000E+00
      13     1     6     6     0     0 -2.303663633E+01  7.060659549E+00 -7.867363004E+00  2.534630007E+01  8.128989754E-07  0.00000E+00  9.000E+00
     -14     1     6     6     0     0  2.185422557E+01 -6.676873547E+01 -8.989948183E+01  1.140946451E+02  1.907348633E-06  0.00000E+00  9.000E+00
       5     1     3     3   502     0  6.829164602E+01  1.610787816E+01 -4.057431188E+01  8.119144007E+01  4.750000000E+00  0.00000E+00  9.000E+00
      -5     1     4     4     0   504 -3.524667119E+01 -1.128628590E+02 -3.815774353E+02  3.995050117E+02  4.750000000E+00  0.00000E+00  9.000E+00
      21     1     1     2   511   502  1.911561951E+01  5.633920627E+01  3.864174728E+00  5.961916570E+01  2.021291847E-07  0.00000E+00  9.000E+00
</event>
<event>
     13  10001  1.00000E+00  1.45367E+01 -1.00000E+00  1.83805E-01
       2    -1     0     0   503     0  0.000000000E+00  0.000000000E+00  5.309355838E+02  5.309355838E+02  0.000000000E+00  0.00000E+00  9.000E+00
      21    -1     0     0   502   503  0.000000000E+00  0.000000000E+00 -8.619714645E+02  8.619714645E+02  0.000000000E+00  0.00000E+00  9.000E+00
       6     2     1     2   502     0 -1.778477337E+02 -8.270652560E+01 -8.020942941E+02  8.434509129E+02  1.720000000E+02  0.00000E+00  9.000E+00
      -6     2     1     2     0   504  1.842027484E+02  6.963247395E+01  4.068446981E+02  4.836175579E+02  1.720000000E+02  0.00000E+00  9.000E+00
      24     2     3     3     0     0 -1.856377813E+02 -9.894024746E+01 -7.888216334E+02  8.205829312E+02  8.286265226E+01  0.00000E+00  9.000E+00
     -24     2     4     4     0     0  2.016038499E+02  8.435341809E+01  3.918171851E+02  4.559066723E+02  8.105908871E+01  0.00000E+00  9.000E+00
     -11     1     5     5     0     0 -1.139578621E+02 -2.885603647E+01 -5.332355971E+02  5.460396206E+02  0.000000000E+00  0.00000E+00  9.000E+00
      12     1     5     5     0     0 -7.167991920E+01 -7.008421099E+01 -2.555860363E+02  2.745433106E+02  2.697398305E-06  0.00000E+00  9.000E+00
      13     1     6     6     0     0  8.575324297E+01  2.050828516E+01  8.814253470E+01  1.246728313E+02  2.861022949E-06  0.00000E+00  9.000E+00
     -14     1     6     6     0     0  1.158506070E+02  6.384513293E+01  3.036746504E+02  3.312338410E+02  3.814697266E-06  0.00000E+00  9.000E+00
       5     1     3     3   502     0  7.790047549E+00  1.623372186E+01 -1.327266071E+01  2.286798173E+01  4.750000000E+00  0.00000E+00  9.000E+00
      -5     1     4     4     0   504 -1.740110158E+01 -1.472094414E+01  1.502751297E+01  2.771088556E+01  4.750000000E+00  0.00000E+00  9.000E+00
       2     1     1     2   504     0 -6.355014641E+00  1.307405165E+01  6.421371542E+01  6.583857749E+01  0.000000000E+00  0.00000E+00  9.000E+00
</event>
<event>
     13  10001  1.00000E+00  5.32514E+00 -1.00000E+00  2.42919E-01
      21    -1     0     0   502   511  0.000000000E+00  0.000000000E+00  7.755818424E+01  7.755818424E+01  0.000000000E+00  0.00000E+00  9.000E+00
      21    -1     0     0   503   504  0.000000000E+00  0.000000000E+00 -1.011180707E+03  1.011180707E+03  0.000000000E+00  0.00000E+00  9.000E+00
       6     2     1     2   502     0 -1.548361210E+01 -2.304121350E+01 -8.670340442E+02  8.843656899E+02  1.720000000E+02  0.00000E+00  9.000E+00
      -6     2     1     2     0   504  1.445549753E+01  2.826616291E+01 -7.820581421E+01  1.915935457E+02  1.720000000E+02  0.00000E+00  9.000E+00
      24     2     3     3     0     0 -5.871285884E+01 -1.590416445E+01 -3.284092965E+02  3.439409620E+02  8.211319672E+01  0.00000E+00  9.000E+00
     -24     2     4     4     0     0  2.901380375E+01 -1.767489892E+01 -1.040401177E+02  1.367073072E+02  8.191665824E+01  0.00000E+00  9.000E+00
     -11     1     5     5     0     0 -5.792981669E+01 -4.524801728E+00 -3.273707448E+02  3.324875066E+02  0.000000000E+00  0.00000E+00  9.000E+00
      12     1     5     5     0     0 -7.830421555E-01 -1.137936272E+01 -1.038551691E+00  1.145345540E+01  4.440446027E-07  0.00000E+00  9.000E+00
      13     1     6     6     0     0 -6.211610396E+00  8.240997259E+00 -9.027128906E+01  9.085925252E+01  9.536743164E-07  0.00000E+00  9.000E+00
     -14     1     6     6     0     0  3.522541414E+01 -2.591589617E+01 -1.376882860E+01  4.584805467E+01  7.907449699E-07  0.00000E+00  9.000E+00
       5     1     3     3   502     0  4.322924674E+01 -7.137049055E+00 -5.386247477E+02  5.404247280E+02  4.750000000E+00  0.00000E+00  9.000E+00
      -5     1     4     4     0   504 -1.455830622E+01  4.594106183E+01  2.583430345E+01  5.488623850E+01  4.750000000E+00  0.00000E+00  9.000E+00
      21     1     1     2   503   511  1.028114577E+00 -5.224949409E+00  1.161733552E+01  1.277965572E+01  4.460403188E-07  0.00000E+00  9.000E+00
</event>
<event>
     13  10001  1.00000E+00  7.09963E+00 -1.00000E+00  2.22257E-01
      21    -1     0     0   503   504  0.000000000E+00  0.000000000E+00  2.221093096E+02  2.221093096E+02  0.000000000E+00  0.00000E+00  9.000E+00
      21    -1     0     0   512   503  0.000000000E+00  0.000000000E+00 -2.635859178E+02  2.635859178E+02  0.000000000E+00  0.00000E+00  9.000E+00
       6     2     1     2   502     0  4.355120284E+00  1.598380688E+02 -4.024960043E+01  2.382670889E+02  1.720000000E+02  0.00000E+00  9.000E+00
      -6     2     1     2     0   504 -6.339576578E+00 -1.530214171E+02  1.389507849E+01  2.307223820E+02  1.720000000E+02  0.00000E+00  9.000E+00
      24     2     3     3     0     0  2.345891898E+01  7.311358143E+01  3.967995576E+01  1.186954021E+02  8.135221519E+01  0.00000E+00  9.000E+00
     -24     2     4     4     0     0  6.000179947E+01 -9.583936979E+01  2.597306478E+01  1.421819676E+02  8.219313285E+01  0.00000E+00  9.000E+00
     -11     1     5     5     0     0  1.591628567E+01 -1.368732165E+01  2.078671398E+01  2.954248469E+01  9.536743164E-07  0.00000E+00  9.000E+00
      12     1     5     5     0     0  7.542633307E+00  8.680090309E+01  1.889324178E+01  8.915291739E+01  2.119110684E-06  0.00000E+00  9.000E+00
      13     1     6     6     0     0 -7.886984244E+00 -4.583427355E+01  3.381382195E+01  5.750095397E+01  1.168007728E-06  0.00000E+00  9.000E+00
     -14     1     6     6     0     0  6.788878372E+01 -5.000509624E+01 -7.840757166E+00  8.468101368E+01  1.819650832E-06  0.00000E+00  9.000E+00
       5     1     3     3   502     0 -1.910379869E+01  8.672448740E+01 -7.992955618E+01  1.195716868E+02  4.750000000E+00  0.00000E+00  9.000E+00
      -5     1     4     4     0   504 -6.634137605E+01 -5.718204736E+01 -1.207798629E+01  8.854041433E+01  4.750000000E+00  0.00000E+00  9.000E+00
      21     1     1     2   512   502  1.984456294E+00 -6.816651684E+00 -1.512208625E+01  1.670575648E+01  2.384185791E-07  0.00000E+00  9.000E+00
</event>
<event>
     13  10001  1.00000E+00  1.23245E+01 -1.00000E+00  1.91387E-01
      21    -1     0     0   502   511  0.000000000E+00  0.000000000E+00  2.621661444E+02  2.621661444E+02  0.000000000E+00  0.00000E+00  9.000E+00
      21    -1     0     0   503   504  0.000000000E+00  0.000000000E+00 -5.989482415E+02  5.989482415E+02  0.000000000E+00  0.00000E+00  9.000E+00
       6     2     1     2   502     0  8.193563749E+00 -7.376720376E+01 -6.414431533E+01  1.980081514E+02  1.720000000E+02  0.00000E+00  9.000E+00
      -6     2     1     2     0   504 -1.481842937E+01  6.337472444E+01 -4.495782250E+02  4.857370913E+02  1.720000000E+02  0.00000E+00  9.000E+00
      24     2     3     3     0     0 -3.958663775E+01 -1.254701890E+01  1.248396629E+01  8.880506202E+01  7.749812936E+01  0.00000E+00  9.000E+00
     -24     2     4     4     0     0 -1.053230971E+01 -4.601843383E+00 -3.784195763E+02  3.871201538E+02  8.079932690E+01  0.00000E+00  9.000E+00
     -11     1     5     5     0     0 -2.976785176E+01  6.276223944E+00 -2.911019805E+01  4.210605201E+01  4.768371582E-07  0.00000E+00  9.000E+00
      12     1     5     5     0     0 -9.818785982E+00 -1.882324284E+01  4.159416433E+01  4.669901001E+01  2.431401974E-06  0.00000E+00  9.000E+00
      13     1     6     6     0     0  1.051024704E+01 -2.346253513E+01 -4.017220724E+01  4.769446594E+01  8.259061849E-07  0.00000E+00  9.000E+00
     -14     1     6     6     0     0 -2.104255675E+01  1.886069174E+01 -3.382473691E+02  3.394256878E+02  0.000000000E+00  0.00000E+00  9.000E+00
       5     1     3     3   502     0  4.778020150E+01 -6.122018486E+01 -7.662828162E+01  1.092030894E+02  4.750000000E+00  0.00000E+00  9.000E+00
      -5     1     4     4     0   504 -4.286119661E+00  6.797656782E+01 -7.115864866E+01  9.861693756E+01  4.750000000E+00  0.00000E+00  9.000E+00
      21     1     1     2   503   511  6.624865623E+00  1.039247932E+01  1.769404432E+02  1.773691431E+02  5.046370146E-06  0.00000E+00  9.000E+00
</event>
<event>
     13  10001  1.00000E+00  2.65065E+01 -1.00000E+00  1.60774E-01
      21    -1     0     0   502   503  0.000000000E+00  0.000000000E+00  3.699854864E+02  3.699854864E+02  0.000000000E+00  0.00000E+00  9.000E+00
      21    -1     0     0   512   504  0.000000000E+00  0.000000000E+00 -4.909136281E+02  4.909136281E+02  0.000000000E+00  0.00000E+00  9.000E+00
       6     2     1     2   502     0  1.475493183E+02 -3.436950502E+01 -2.149171193E+01  2.302128534E+02  1.720000000E+02  0.00000E+00  9.000E+00
      -6     2     1     2     0   504 -1.276289214E+02  1.688311355E+01  2.215460841E+02  3.086111607E+02  1.720000000E+02  0.00000E+00  9.000E+00
      24     2     3     3     0     0  4.550336552E+01 -2.630221938E+01 -6.895509449E+01  1.172801622E+02  7.897764469E+01  0.00000E+00  9.000E+00
     -24     2     4     4     0     0 -6.981063301E+01 -4.287106484E+01  1.843729852E+02  2.174085396E+02  8.100384391E+01  0.00000E+00  9.000E+00
     -11     1     5     5     0     0  6.306640911E+01 -4.610304935E+00 -3.171647914E+01  7.074292839E+01  9.536743164E-07  0.00000E+00  9.000E+00
      12     1     5     5     0     0 -1.756304358E+01 -2.169191445E+01 -3.723861536E+01  4.653723376E+01  1.348699152E-06  0.00000E+00  9.000E+00
      13     1     6     6     0     0 -7.539391908E+01 -5.948985328E+01  1.674843054E+02  1.930654766E+02  3.814697266E-06  0.00000E+00  9.000E+00
     -14     1     6     6     0     0  5.583286063E+00  1.661878844E+01  1.688867976E+01  2.434306301E+01  1.305872339E-06  0.00000E+00  9.000E+00
       5     1     3     3   502     0  1.020459528E+02 -8.067285639E+00  4.746338256E+01  1.129326913E+02  4.750000000E+00  0.00000E+00  9.000E+00
      -5     1     4     4     0   504 -5.781828844E+01  5.975417839E+01  3.717309890E+01  9.120262110E+01  4.750000000E+00  0.00000E+00  9.000E+00
      21     1     1     2   512   503 -1.992039686E+01  1.748639147E+01 -3.209825139E+02  3.220751004E+02  3.814697266E-06  0.00000E+00  9.000E+00
</event>
<event>
     13  10001  1.00000E+00  2.87900E+01 -1.00000E+00  1.58062E-01
      21    -1     0     0   502   503  0.000000000E+00  0.000000000E+00  7.465830280E+02  7.465830280E+02  0.000000000E+00  0.00000E+00  9.000E+00
      21    -1     0     0   503   511  0.000000000E+00  0.000000000E+00 -1.296007048E+02  1.296007048E+02  0.000000000E+00  0.00000E+00  9.000E+00
       6     2     1     2   502     0  1.757348433E+02 -5.314718118E+01  1.089193489E+02  2.741437261E+02  1.720000000E+02  0.00000E+00  9.000E+00
      -6     2     1     2     0   504 -1.609901240E+02  2.841955885E+01  5.194462242E+02  5.710813175E+02  1.720000000E+02  0.00000E+00  9.000E+00
      24     2     3     3     0     0  1.841014786E+01  8.870062032E+00  4.274491442E+01  9.248796233E+01  7.943100102E+01  0.00000E+00  9.000E+00
     -24     2     4     4     0     0 -2.526044094E+00  6.724585695E+01  1.187614611E+02  1.384276593E+02  2.301186754E+01  0.00000E+00  9.000E+00
     -11     1     5     5     0     0 -3.188528644E+00 -1.408657261E+00 -2.261837877E+01  2.288541213E+01  8.596304120E-07  0.00000E+00  9.000E+00
      12     1     5     5     0     0  2.159867651E+01  1.027871929E+01  6.536329319E+01  6.960255020E+01  1.348699152E-06  0.00000E+00  9.000E+00
      13     1     6     6     0     0 -5.386595968E+00  1.399626730E+01  4.482184580E+01  4.726424416E+01  1.168007728E-06  0.00000E+00  9.000E+00
     -14     1     6     6     0     0  2.860551874E+00  5.324958965E+01  7.393961532E+01  9.116341519E+01  1.651812370E-06  0.00000E+00  9.000E+00
       5     1     3     3   502     0  1.573246954E+02 -6.201724321E+01  6.617443452E+01  1.816557638E+02  4.750000000E+00  0.00000E+00  9.000E+00
      -5     1     4     4     0   504 -1.584640799E+02 -3.882629810E+01  4.006847631E+02  4.326536582E+02  4.750000000E+00  0.00000E+00  9.000E+00
      21     1     1     2   504   511 -1.474471927E+01  2.472762233E+01 -1.138324994E+01  3.095868911E+01  2.920019320E-07  0.00000E+00  9.000E+00
</event>
<event>
     13  10001  1.00000E+00  2.73336E+01 -1.00000E+00  1.59755E-01
      21    -1     0     0   502   503  0.000000000E+00  0.000000000E+00  1.012101114E+02  1.012101114E+02  0.000000000E+00  0.00000E+00  9.000E+00
       1    -1     0     0   503     0  0.000000000E+00  0.000000000E+00 -7.764147203E+02  7.764147203E+02  0.000000000E+00  0.00000E+00  9.000E+00
       6     2     1     2   502     0 -9.286392029E+01 -7.933966162E+00 -4.253125254E+01  2.001988086E+02  1.720000000E+02  0.00000E+00  9.000E+00
      -6     2     1     2     0   504  1.130274648E+02  2.638810172E+01 -4.894410446E+02  5.316089501E+02  1.720000000E+02  0.00000E+00  9.000E+00
      24     2     3     3     0     0 -7.398582780E+01 -6.897528176E+01 -1.553859377E+01  1.306747788E+02  8.125858546E+01  0.00000E+00  9.000E+00
     -24     2     4     4     0     0  8.279442340E+01  7.966258819E+01 -3.954998920E+02  4.193605187E+02  7.900655405E+01  0.00000E+00  9.000E+00
     -11     1     5     5     0     0 -7.442051120E+00 -4.443323443E+01  2.231986485E+01  5.027795555E+01  2.311553887E-06  0.00000E+00  9.000E+00
      12     1     5     5     0     0 -6.654377668E+01 -2.454204733E+01 -3.785845862E+01  8.039682326E+01  2.078484985E-06  0.00000E+00  9.000E+00
      13     1     6     6     0     0  7.958658031E+00 -7.322174310E+00 -1.258180183E+02  1.262819394E+02  3.015782986E-06  0.00000E+00  9.000E+00
     -14     1     6     6     0     0  7.483576537E+01  8.698476250E+01 -2.696818737E+02  2.930785793E+02  0.000000000E+00  0.00000E+00  9.000E+00
       5     1     3     3   502     0 -1.887809249E+01  6.104131560E+01 -2.699265877E+01  6.952402976E+01  4.750000000E+00  0.00000E+00  9.000E+00
      -5     1     4     4     0   504  3.023304138E+01 -5.327448647E+01 -9.394115257E+01  1.122484314E+02  4.750000000E+00  0.00000E+00  9.000E+00
       1     1     1     2   504     0 -2.016354449E+01 -1.845413556E+01 -1.432323118E+02  1.458170730E+02  2.697398305E-06  0.00000E+00  9.000E+00
</event>
<event>
     13  10001  1.00000E+00  4.49994E+01 -1.00000E+00  1.44897E-01
       2    -1     0     0   503     0  0.000000000E+00  0.000000000E+00  1.749211513E+03  1.749211513E+03  0.000000000E+00  0.00000E+00  9.000E+00
      21    -1     0     0   502   503  0.000000000E+00  0.000000000E+00 -4.068686098E+01  4.068686098E+01  0.000000000E+00  0.00000E+00  9.000E+00
       6     2     1     2   502     0 -7.915322059E+01  3.579613835E+01  3.289971620E+02  3.812738234E+02  1.720000000E+02  0.00000E+00  9.000E+00
      -6     2     1     2     0   504  3.939353197E+01 -5.687023198E+01  6.044517454E+02  6.322436130E+02  1.720000000E+02  0.00000E+00  9.000E+00
      24     2     3     3     0     0 -1.172043389E+02  5.216268849E+01  2.551837442E+02  2.964992122E+02  7.959419836E+01  0.00000E+00  9.000E+00
     -24     2     4     4     0     0  7.497294970E+01 -5.761538818E+00  2.639650754E+02  2.860764158E+02  8.067227599E+01  0.00000E+00  9.000E+00
     -11     1     5     5     0     0 -4.998627903E+01  3.553098050E+00  1.714871216E+02  1.786591321E+02  1.907348633E-06  0.00000E+00  9.000E+00
      12     1     5     5     0     0 -6.721805984E+01  4.860959044E+01  8.369662262E+01  1.178400801E+02  1.348699152E-06  0.00000E+00  9.000E+00
      13     1     6     6     0     0  5.618576160E+01  8.300363804E+00  2.545202542E+02  2.607801672E+02  3.814697266E-06  0.00000E+00  9.000E+00
     -14     1     6     6     0     0  1.878718809E+01 -1.406190262E+01  9.444821248E+00  2.529624854E+01  3.769728732E-07  0.00000E+00  9.000E+00
       5     1     3     3   502     0  3.805111828E+01 -1.636655015E+01  7.381341773E+01  8.477461120E+01  4.750000000E+00  0.00000E+00  9.000E+00
      -5     1     4     4     0   504 -3.557941773E+01 -5.110869316E+01  3.404866700E+02  3.461671972E+02  4.750000000E+00  0.00000E+00  9.000E+00
       2     1     1     2   504     0  3.975968862E+01  2.107409363E+01  7.750757446E+02  7.763809375E+02  1.078959322E-05  0.00000E+00  9.000E+00
</event>
<event>
     13  10001  1.00000E+00  1.24864E+01 -1.00000E+00  1.90764E-01
       2    -1     0     0   502     0  0.000000000E+00  0.000000000E+00  1.873530125E+03  1.873530125E+03  0.000000000E+00  0.00000E+00  9.000E+00
      -2    -1     0     0     0   511  0.000000000E+00  0.000000000E+00 -2.216782406E+01  2.216782406E+01  0.000000000E+00  0.00000E+00  9.000E+00
       6     2     1     2   502     0  8.799218866E+01 -6.785972029E-01  9.764368108E+02  9.953672344E+02  1.720000000E+02  0.00000E+00  9.000E+00
      -6     2     1     2     0   512 -9.960959573E+01 -3.898098605E+00  8.410896381E+02  8.642644538E+02  1.720000000E+02  0.00000E+00  9.000E+00
      24     2     3     3     0     0  9.269733185E+01 -4.983759854E+01  8.350922021E+02  8.455686807E+02  8.081352690E+01  0.00000E+00  9.000E+00
     -24     2     4     4     0     0  1.163694584E+01 -1.429929444E+01  2.735364574E+02  2.857982462E+02  8.073757286E+01  0.00000E+00  9.000E+00
     -11     1     5     5     0     0  8.029772830E+01 -4.852472718E+01  4.226524044E+02  4.329404454E+02  7.629394531E-06  0.00000E+00  9.000E+00
      12     1     5     5     0     0  1.239960355E+01 -1.312871361E+00  4.124397977E+02  4.126282353E+02  7.629394531E-06  0.00000E+00  9.000E+00
      13     1     6     6     0     0 -5.692386721E+00 -1.553236582E+01  5.846841656E+00  1.754546129E+01  3.475518164E-07  0.00000E+00  9.000E+00
     -14     1     6     6     0     0  1.732933256E+01  1.233071373E+00  2.676896158E+02  2.682527849E+02  0.000000000E+00  0.00000E+00  9.000E+00
       5     1     3     3   502     0 -4.705143194E+00  4.915900134E+01  1.413446087E+02  1.497985537E+02  4.750000000E+00  0.00000E+00  9.000E+00
      -5     1     4     4     0   512 -1.112465416E+02  1.040119584E+01  5.675531807E+02  5.784662075E+02  4.750000000E+00  0.00000E+00  9.000E+00
      21     1     1     2   512   511  1.161740707E+01  4.576695808E+00  3.383585168E+01  3.606626055E+01  6.743495762E-07  0.00000E+00  9.000E+00
</event>
<event>
     13  10001  1.00000E+00  4.92476E+00 -1.00000E+00  2.53748E-01
      21    -1     0     0   503   504  0.000000000E+00  0.000000000E+00  1.302918894E+02  1.302918894E+02  0.000000000E+00  0.00000E+00  9.000E+00
       2    -1     0     0   502     0  0.000000000E+00  0.000000000E+00 -9.350226898E+02  9.350226898E+02  0.000000000E+00  0.00000E+00  9.000E+00
       6     2     1     2   502     0 -4.127299810E+01 -1.096964168E+02 -8.440471920E+01  2.245994676E+02  1.720000000E+02  0.00000E+00  9.000E+00
      -6     2     1     2     0   504  4.619710007E+01  1.096156278E+02 -1.214813110E+02  2.418500916E+02  1.720000000E+02  0.00000E+00  9.000E+00
      24     2     3     3     0     0 -6.458957793E+00  2.598101562E+00 -3.052751555E+00  8.155128904E+01  8.119621410E+01  0.00000E+00  9.000E+00
     -24     2     4     4     0     0  7.021591431E+01  8.992328857E+01 -2.663289990E+01  1.419327496E+02  8.011942080E+01  0.00000E+00  9.000E+00
     -11     1     5     5     0     0  1.889725469E+01 -3.080268415E+01  1.023936753E+01  3.756003505E+01  9.902267293E-07  0.00000E+00  9.000E+00
      12     1     5     5     0     0 -2.535621248E+01  3.340078571E+01 -1.329211909E+01  4.399125399E+01  8.920806376E-07  0.00000E+00  9.000E+00
      13     1     6     6     0     0  6.341893910E+01  3.984775084E+01 -4.590614889E+01  8.784747913E+01  1.348699152E-06  0.00000E+00  9.000E+00
     -14     1     6     6     0     0  6.796975219E+00  5.007553773E+01  1.927324899E+01  5.408527043E+01  1.599360450E-06  0.00000E+00  9.000E+00
       5     1     3     3   502     0 -3.481404031E+01 -1.122945183E+02 -8.135196764E+01  1.430481786E+02  4.750000000E+00  0.00000E+00  9.000E+00
      -5     1     4     4     0   504 -2.401881425E+01  1.969233920E+01 -9.484841110E+01  9.991734209E+01  4.750000000E+00  0.00000E+00  9.000E+00
       2     1     1     2   503     0 -4.924101962E+00  8.078900663E-02 -5.988447702E+02  5.988650199E+02  0.000000000E+00  0.00000E+00  9.000E+00
</event>
<event>
     13  10001  1.00000E+00  1.11747E+02 -1.00000E+00  1.24000E-01
      21    -1     0     0   502   503  0.000000000E+00  0.000000000E+00  9.217362539E+01  9.217362539E+01  0.000000000E+00  0.00000E+00  9.000E+00
      21    -1     0     0   503   511  0.000000000E+00  0.000000000E+00 -7.967105468E+02  7.967105468E+02  0.000000000E+00  0.00000E+00  9.000E+00
       6     2     1     2   502     0 -2.865304705E+01 -2.164007815E+01 -8.184932666E+01  1.938365352E+02  1.720000000E+02  0.00000E+00  9.000E+00
      -6     2     1     2     0   504 -8.306881083E+01  1.924928766E+01 -3.303684451E+02  3.820972022E+02  1.720000000E+02  0.00000E+00  9.000E+00
      24     2     3     3     0     0  1.678267193E+01  5.007807575E+00  1.577120579E+01  8.281020842E+01  7.938553692E+01  0.00000E+00  9.000E+00
     -24     2     4     4     0     0 -8.360660354E+01 -4.239220378E+01 -2.619522954E+02  2.898838912E+02  8.140333044E+01  0.00000E+00  9.000E+00
     -11     1     5     5     0     0 -2.242648915E+01 -2.168051969E+01 -3.952848362E+00  3.144228617E+01  7.782915149E-07  0.00000E+00  9.000E+00
      12     1     5     5     0     0  3.920916107E+01  2.668832726E+01  1.972405415E+01  5.136792225E+01  7.907449699E-07  0.00000E+00  9.000E+00
      13     1     6     6     0     0 -8.268538307E+01 -5.554635385E+00 -1.421529577E+02  1.645454038E+02  1.907348633E-06  0.00000E+00  9.000E+00
     -14     1     6     6     0     0 -9.212204756E-01 -3.683756840E+01 -1.197993377E+02  1.253384873E+02  1.907348633E-06  0.00000E+00  9.000E+00
       5     1     3     3   502     0 -4.543571898E+01 -2.664788573E+01 -9.762053246E+01  1.110263267E+02  4.750000000E+00  0.00000E+00  9.000E+00
      -5     1     4     4     0   504  5.377927169E-01  6.164149145E+01 -6.841614974E+01  9.221331105E+01  4.750000000E+00  0.00000E+00  9.000E+00
      21     1     1     2   504   511  1.117218579E+02  2.390790493E+00 -2.923191496E+02  3.129504348E+02  5.394796609E-06  0.00000E+00  9.000E+00
</event>
<event>
     13  10001  1.00000E+00  2.51200E+01 -1.00000E+00  1.62588E-01
      21    -1     0     0   503   504  0.000000000E+00  0.000000000E+00  8.981788093E+02  8.981788093E+02  0.000000000E+00  0.00000E+00  9.000E+00
      21    -1     0     0   512   503  0.000000000E+00  0.000000000E+00 -1.281242815E+02  1.281242815E+02  0.000000000E+00  0.00000E+00  9.000E+00
       6     2     1     2   502     0  1.458852120E+01 -2.102892526E+02  2.017080313E+02  3.386805642E+02  1.720000000E+02  0.00000E+00  9.000E+00
      -6     2     1     2     0   504 -6.964947876E+00  2.342245394E+02  5.878694649E+02  6.558080154E+02  1.720000000E+02  0.00000E+00  9.000E+00
      24     2     3     3     0     0 -4.707097510E+01 -7.901433224E+01  4.953497070E+01  1.284088327E+02  7.467378126E+01  0.00000E+00  9.000E+00
     -24     2     4     4     0     0  4.230232528E+01  5.797250231E+01  2.158365758E+02  2.411719366E+02  8.017591792E+01  0.00000E+00  9.000E+00
     -11     1     5     5     0     0 -2.399201272E+01 -2.300273466E+01 -1.790631642E+01  3.775418710E+01  8.259061849E-07  0.00000E+00  9.000E+00
      12     1     5     5     0     0 -2.307896239E+01 -5.601159758E+01  6.744128712E+01  9.065464565E+01  9.536743164E-07  0.00000E+00  9.000E+00
      13     1     6     6     0     0 -6.844507270E+00 -6.476086659E+00  9.623413126E+01  9.669433798E+01  1.907348633E-06  0.00000E+00  9.000E+00
     -14     1     6     6     0     0  4.914683256E+01  6.444858896E+01  1.196024445E+02  1.444775986E+02  3.015782986E-06  0.00000E+00  9.000E+00
       5     1     3     3   502     0  6.165949630E+01 -1.312749204E+02  1.521730606E+02  2.102717315E+02  4.750000000E+00  0.00000E+00  9.000E+00
      -5     1     4     4     0   504 -4.926727316E+01  1.762520371E+02  3.720328891E+02  4.146360788E+02  4.750000000E+00  0.00000E+00  9.000E+00
      21     1     1     2   512   502 -7.623573320E+00 -2.393528678E+01 -1.952296844E+01  3.181451116E+01  5.840038640E-07  0.00000E+00  9.000E+00
</event>
<event>
     13  10001  1.00000E+00  1.40214E+01 -1.00000E+00  1.85409E-01
      21    -1     0     0   503   504  0.000000000E+00  0.000000000E+00  1.950832652E+02  1.950832652E+02  0.000000000E+00  0.00000E+00  9.000E+00
      21    -1     0     0   511   503  0.000000000E+00  0.000000000E+00 -2.003104644E+02  2.003104644E+02  0.000000000E+00  0.00000E+00  9.000E+00
       6     2     1     2   502     0 -4.947105910E+01 -4.646248916E+01  4.017457036E+01  1.892198317E+02  1.720000000E+02  0.00000E+00  9.000E+00
      -6     2     1     2     0   504  6.148245673E+01  3.922887218E+01 -4.490180013E+01  1.921436144E+02  1.720000000E+02  0.00000E+00  9.000E+00
      24     2     3     3     0     0 -1.874865307E+01 -9.562830494E+01  3.264486979E+01  1.305648867E+02  8.053084766E+01  0.00000E+00  9.000E+00
     -24     2     4     4     0     0  6.609159133E+01 -3.411300250E+01 -1.274074981E+01  1.117870941E+02  8.247564676E+01  0.00000E+00  9.000E+00
     -11     1     5     5     0     0 -3.986627714E+01 -3.452223597E+01 -9.227817048E+00  5.353743958E+01  5.331201500E-07  0.00000E+00  9.000E+00
      12     1     5     5     0     0  2.111762407E+01 -6.110606897E+01  4.187268684E+01  7.702744715E+01  1.966049969E-06  0.00000E+00  9.000E+00
      13     1     6     6     0     0  6.272738761E+00 -2.114313455E+01 -3.929946318E+01  4.506470011E+01  0.000000000E+00  0.00000E+00  9.000E+00
     -14     1     6     6     0     0  5.981885257E+01 -1.296986795E+01  2.655871337E+01  6.672239394E+01  5.840038640E-07  0.00000E+00  9.000E+00
       5     1     3     3   502     0 -3.072240602E+01  4.916581578E+01  7.529700572E+00  5.865494492E+01  4.750000000E+00  0.00000E+00  9.000E+00
      -5     1     4     4     0   504 -4.609134599E+00  7.334187468E+01 -3.216105032E+01  8.035652034E+01  4.750000000E+00  0.00000E+00  9.000E+00
      21     1     1     2   511   502 -1.201139764E+01  7.233616983E+00 -4.999694333E-01  1.403028358E+01  1.140936675E-07  0.00000E+00  9.000E+00
</event>
<event>
     13  10001  1.00000E+00  1.33965E+01 -1.00000E+00  1.87477E-01
      21    -1     0     0   502   503  0.000000000E+00  0.000000000E+00  1.620181705E+02  1.620181705E+02  0.000000000E+00  0.00000E+00  9.000E+00
      21    -1     0     0   512   504  0.000000000E+00  0.000000000E+00 -8.389961934E+02  8.389961934E+02  0.000000000E+00  0.00000E+00  9.000E+00
       6     2     1     2   502     0  2.975065635E+01  9.606235233E+01 -2.399053506E+02  3.118519750E+02  1.720000000E+02  0.00000E+00  9.000E+00
      -6     2     1     2     0   504 -1.664569406E+01 -9.884182017E+01  4.728992440E+01  2.046145681E+02  1.720000000E+02  0.00000E+00  9.000E+00
      24     2     3     3     0     0  1.220702064E+01  1.155191338E+02 -2.468008818E+02  2.843482234E+02  8.030912328E+01  0.00000E+00  9.000E+00
     -24     2     4     4     0     0  3.534991882E+00 -1.340893536E+02  4.773531720E+01  1.637194636E+02  8.082667461E+01  0.00000E+00  9.000E+00
     -11     1     5     5     0     0  1.159063281E+01  3.393867000E-01  4.295776247E-01  1.160355502E+01  1.000474549E-06  0.00000E+00  9.000E+00
      12     1     5     5     0     0  6.163878338E-01  1.151797471E+02 -2.472304594E+02  2.727446684E+02  6.607249480E-06  0.00000E+00  9.000E+00
      13     1     6     6     0     0  3.165887296E+01 -4.901128016E+01 -6.926551199E+00  5.875684583E+01  2.795705652E-07  0.00000E+00  9.000E+00
     -14     1     6     6     0     0 -2.812388108E+01 -8.507807347E+01  5.466186840E+01  1.049626178E+02  2.523185073E-06  0.00000E+00  9.000E+00
       5     1     3     3   502     0  1.754363571E+01 -1.945678147E+01  6.895531253E+00  2.750375157E+01  4.750000000E+00  0.00000E+00  9.000E+00
      -5     1     4     4     0   504 -2.018068594E+01  3.524753346E+01 -4.453927997E-01  4.089510454E+01  4.750000000E+00  0.00000E+00  9.000E+00
      21     1     1     2   512   503 -1.310496229E+01  2.779467842E+00 -4.843625967E+02  4.845478208E+02  5.394796609E-06  0.00000E+00  9.000E+00
</event>
<event>
     13  10001  1.00000E+00  2.38924E+02 -1.00000E+00  1.10740E-01
      21    -1     0     0   502   503  0.000000000E+00  0.000000000E+00  4.378374569E+02  4.378374569E+02  0.000000000E+00  0.00000E+00  9.000E+00
       3    -1     0     0   503     0  0.000000000E+00  0.000000000E+00 -7.445084198E+02  7.445084198E+02  0.000000000E+00  0.00000E+00  9.000E+00
       6     2     1     2   502     0  3.047798540E+01  2.415126656E+02  2.307177397E+02  3.769243302E+02  1.720000000E+02  0.00000E+00  9.000E+00
      -6     2     1     2     0   504 -3.797382453E+01 -2.706421416E+00  3.991679098E+01  1.806285865E+02  1.720000000E+02  0.00000E+00  9.000E+00
      24     2     3     3     0     0  4.821710262E+01  1.466964969E+02  2.186684545E+02  2.795974074E+02  8.070976415E+01  0.00000E+00  9.000E+00
     -24     2     4     4     0     0 -5.507333000E+00  1.574331122E+01  8.779341267E+01  1.197253919E+02  7.967624239E+01  0.00000E+00  9.000E+00
     -11     1     5     5     0     0  4.748435904E+01  3.486934252E+01  5.024636788E+01  7.742953497E+01  1.507891493E-06  0.00000E+00  9.000E+00
      12     1     5     5     0     0  7.327435798E-01  1.118271544E+02  1.684220866E+02  2.021678724E+02  5.046370146E-06  0.00000E+00  9.000E+00
      13     1     6     6     0     0  3.740658480E-01  2.272327981E+01 -7.548801053E+00  2.394727058E+01  4.214684851E-07  0.00000E+00  9.000E+00
     -14     1     6     6     0     0 -5.881398848E+00 -6.979968592E+00  9.534221372E+01  9.577812136E+01  1.348699152E-06  0.00000E+00  9.000E+00
       5     1     3     3   502     0 -1.773911722E+01  9.481616871E+01  1.204928527E+01  9.732692282E+01  4.750000000E+00  0.00000E+00  9.000E+00
      -5     1     4     4     0   504 -3.246649153E+01 -1.844973264E+01 -4.787662169E+01  6.090319459E+01  4.750000000E+00  0.00000E+00  9.000E+00
       3     1     1     2   504     0  7.495839132E+00 -2.388062442E+02 -5.773054936E+02  6.247929600E+02  7.629394531E-06  0.00000E+00  9.000E+00
</event>
<event>
     13  10001  1.00000E+00  1.00985E+02 -1.00000E+00  1.26017E-01
      21    -1     0     0   502   503  0.000000000E+00  0.000000000E+00  2.421728506E+02  2.421728506E+02  0.000000000E+00  0.00000E+00  9.000E+00
      21    -1     0     0   503   511  0.000000000E+00  0.000000000E+00 -3.607179461E+02  3.607179461E+02  0.000000000E+00  0.00000E+00  9.000E+00
       6     2     1     2   502     0  9.957527856E+01 -4.469870177E+01  2.650225956E+01  2.054253631E+02  1.720000000E+02  0.00000E+00  9.000E+00
      -6     2     1     2     0   504 -1.798995430E+02 -1.650633475E+01 -4.157440581E+01  2.528808729E+02  1.720000000E+02  0.00000E+00  9.000E+00
      24     2     3     3     0     0  6.358845212E+01 -4.206253447E+01  8.273688168E+01  1.384410643E+02  8.067086621E+01  0.00000E+00  9.000E+00
     -24     2     4     4     0     0 -1.717844489E+02 -4.241493049E+01 -9.808212999E+00  2.108242017E+02  1.142003493E+02  0.00000E+00  9.000E+00
     -11     1     5     5     0     0  2.356241067E+01 -6.196234778E+01  5.016522285E+01  8.313284142E+01  2.431401974E-06  0.00000E+00  9.000E+00
      12     1     5     5     0     0  4.002604144E+01  1.989981330E+01  3.257165883E+01  5.530822292E+01  8.259061849E-07  0.00000E+00  9.000E+00
      13     1     6     6     0     0 -1.798617217E+02 -1.595713138E+01  2.406494371E+00  1.805842191E+02  3.442652006E-06  0.00000E+00  9.000E+00
     -14     1     6     6     0     0  8.077272829E+00 -2.645779911E+01 -1.221470737E+01  3.023998258E+01  1.369610464E-06  0.00000E+00  9.000E+00
       5     1     3     3   502     0  3.598682644E+01 -2.636167301E+00 -5.623462212E+01  6.698429876E+01  4.750000000E+00  0.00000E+00  9.000E+00
      -5     1     4     4     0   504 -8.115094088E+00  2.590859574E+01 -3.176619281E+01  4.205667118E+01  4.750000000E+00  0.00000E+00  9.000E+00
      21     1     1     2   504   511  8.032426443E+01  6.120503653E+01 -1.034729493E+02  1.445845607E+02  2.336015456E-06  0.00000E+00  9.000E+00
</event>
<event>
     13  10001  1.00000E+00  1.29325E+02 -1.00000E+00  1.21205E-01
       2    -1     0     0   502     0  0.000000000E+00  0.000000000E+00  1.180638649E+03  1.180638649E+03  0.000000000E+00  0.00000E+00  9.000E+00
      21    -1     0     0   503   504  0.000000000E+00  0.000000000E+00 -3.423941754E+02  3.423941754E+02  0.000000000E+00  0.00000E+00  9.000E+00
       6     2     1     2   502     0 -8.228519549E+00 -5.258681954E+01 -2.223155852E+02  2.860791876E+02  1.720000000E+02  0.00000E+00  9.000E+00
      -6     2     1     2     0   504  1.050100432E+01 -7.671830775E+01  2.146759259E+01  1.898442187E+02  1.720000000E+02  0.00000E+00  9.000E+00
      24     2     3     3     0     0  4.784686090E+01 -5.725935672E+01 -1.941192336E+02  2.229612215E+02  8.038329058E+01  0.00000E+00  9.000E+00
     -24     2     4     4     0     0 -3.609474510E+01 -2.385626656E+01  6.034851173E+01  1.092225861E+02  8.009792990E+01  0.00000E+00  9.000E+00
     -11     1     5     5     0     0  5.375366526E+01 -1.905292914E+01 -5.753426128E+01  8.101025774E+01  1.784161275E-06  0.00000E+00  9.000E+00
      12     1     5     5     0     0 -5.906804366E+00 -3.820642758E+01 -1.365849723E+02  1.419509638E+02  1.907348633E-06  0.00000E+00  9.000E+00
      13     1     6     6     0     0 -2.274473463E+01 -2.074854307E+01  7.973938914E+01  8.547628427E+01  1.348699152E-06  0.00000E+00  9.000E+00
     -14     1     6     6     0     0 -1.335001047E+01 -3.107723493E+00 -1.939087741E+01  2.374630185E+01  4.129530925E-07  0.00000E+00  9.000E+00
       5     1     3     3   502     0 -5.607538044E+01  4.672537171E+00 -2.819635160E+01  6.311796606E+01  4.750000000E+00  0.00000E+00  9.000E+00
      -5     1     4     4     0   504  4.659574942E+01 -5.286204119E+01 -3.888091914E+01  8.062163256E+01  4.750000000E+00  0.00000E+00  9.000E+00
       2     1     1     2   503     0 -2.272484775E+00  1.293051273E+02  1.039092466E+03  1.047109418E+03  0.000000000E+00  0.00000E+00  9.000E+00
</event>
<event>
     13  10001  1.00000E+00  2.10433E+02 -1.00000E+00  1.12751E-01
       2    -1     0     0   502     0  0.000000000E+00  0.000000000E+00  6.946738702E+02  6.946738702E+02  0.000000000E+00  0.00000E+00  9.000E+00
      21    -1     0     0   511   512  0.000000000E+00  0.000000000E+00 -5.926941241E+02  5.926941241E+02  0.000000000E+00  0.00000E+00  9.000E+00
       6     2     1     2   502     0 -5.546143953E+01 -9.615095689E+01 -1.983606151E+02  2.850472091E+02  1.720000000E+02  0.00000E+00  9.000E+00
      -6     2     1     2     0   512  2.650935397E+02  7.780435875E+01 -2.517738870E+02  4.114634774E+02  1.720000000E+02  0.00000E+00  9.000E+00
      24     2     3     3     0     0 -7.301723248E+01 -1.074259082E+01 -1.484055629E+02  1.844447012E+02  8.092414464E+01  0.00000E+00  9.000E+00
     -24     2     4     4     0     0  1.420934022E+02 -2.392520213E+00 -1.938394223E+02  2.535409080E+02  8.070322962E+01  0.00000E+00  9.000E+00
     -11     1     5     5     0     0  1.068634976E+01 -2.922724708E+00  2.811619634E+00  1.143003044E+01  3.068336886E-07  0.00000E+00  9.000E+00
      12     1     5     5     0     0 -8.370358224E+01 -7.819866113E+00 -1.512171826E+02  1.730146707E+02  5.722045898E-06  0.00000E+00  9.000E+00
      13     1     6     6     0     0  5.636639332E+01  3.703666055E+01 -9.870316608E+01  1.195458051E+02  0.000000000E+00  0.00000E+00  9.000E+00
     -14     1     6     6     0     0  8.572700884E+01 -3.942918076E+01 -9.513625625E+01  1.339951029E+02  1.348699152E-06  0.00000E+00  9.000E+00
       5     1     3     3   502     0  1.755579295E+01 -8.540836607E+01 -4.995505216E+01  1.006025079E+02  4.750000000E+00  0.00000E+00  9.000E+00
      -5     1     4     4     0   512  1.230001376E+02  8.019687896E+01 -5.793446469E+01  1.579225694E+02  4.750000000E+00  0.00000E+00  9.000E+00
       2     1     1     2   511     0 -2.096321002E+02  1.834659814E+01  5.521142482E+02  5.908573078E+02  0.000000000E+00  0.00000E+00  9.000E+00
</event>
<event>
     13  10001  1.00000E+00  1.23993E+02 -1.00000E+00  1.21997E-01
       2    -1     0     0   503     0  0.000000000E+00  0.000000000E+00  1.222449797E+03  1.222449797E+03  0.000000000E+00  0.00000E+00  9.000E+00
      21    -1     0     0   502   503  0.000000000E+00  0.000000000E+00 -6.701111970E+01  6.701111970E+01  0.000000000E+00  0.00000E+00  9.000E+00
       6     2     1     2   502     0 -1.450227851E+01  8.844058097E+00  2.438056648E+02  2.988540374E+02  1.720000000E+02  0.00000E+00  9.000E+00
      -6     2     1     2     0   504  1.276661469E+02  4.183304065E+01  3.281879855E+02  3.941319603E+02  1.720000000E+02  0.00000E+00  9.000E+00
      24     2     3     3     0     0 -1.901560112E+01  1.058372645E+01  4.477986203E+01  9.971280807E+01  8.639328503E+01  0.00000E+00  9.000E+00
     -24     2     4     4     0     0  4.880506634E+01 -1.158412710E+01  2.613916806E+02  2.776984055E+02  7.921279727E+01  0.00000E+00  9.000E+00
     -11     1     5     5     0     0  1.534829632E+01  4.225196801E+00 -2.032746846E+01  2.581914914E+01  7.539457465E-07  0.00000E+00  9.000E+00
      12     1     5     5     0     0 -3.436389744E+01  6.358529650E+00  6.510733049E+01  7.389365893E+01  1.348699152E-06  0.00000E+00  9.000E+00
      13     1     6     6     0     0 -2.101923813E+01 -2.169344857E-01  3.870308485E+01  4.404298138E+01  8.259061849E-07  0.00000E+00  9.000E+00
     -14     1     6     6     0     0  6.982430446E+01 -1.136719261E+01  2.226885957E+02  2.336554241E+02  2.697398305E-06  0.00000E+00  9.000E+00
       5     1     3     3   502     0  4.513322605E+00 -1.739668355E+00  1.990258028E+02  1.991412293E+02  4.750000000E+00  0.00000E+00  9.000E+00
      -5     1     4     4     0   504  7.886108061E+01  5.341716775E+01  6.679630489E+01  1.164335548E+02  4.750000000E+00  0.00000E+00  9.000E+00
       2     1     1     2   504     0 -1.131638684E+02 -5.067709875E+01  5.834450275E+02  5.964749195E+02  1.078959322E-05  0.00000E+00  9.000E+00
</event>
<event>
     13  10001  1.00000E+00  1.49238E+02 -1.00000E+00  1.18586E-01
      21    -1     0     0   502   503  0.000000000E+00  0.000000000E+00  1.292625249E+02  1.292625249E+02  0.000000000E+00  0.00000E+00  9.000E+00
      21    -1     0     0   503   511  0.000000000E+00  0.000000000E+00 -1.047307651E+03  1.047307651E+03  0.000000000E+00  0.00000E+00  9.000E+00
       6     2     1     2   502     0  4.025506088E+01 -4.929282129E+01 -1.045113963E+02  2.110850163E+02  1.720000000E+02  0.00000E+00  9.000E+00
      -6     2     1     2     0   504 -1.399284649E+02  1.603660664E+02 -2.132401943E+02  3.469187671E+02  1.720000000E+02  0.00000E+00  9.000E+00
      24     2     3     3     0     0  4.972224102E+01  3.172997625E+01 -4.239157113E+01  1.084411836E+02  8.051926691E+01  0.00000E+00  9.000E+00
     -24     2     4     4     0     0 -9.478297109E+01  1.447466779E+02 -2.272406689E+02  2.969122006E+02  8.113643363E+01  0.00000E+00  9.000E+00
     -11     1     5     5     0     0 -1.912976678E+01  1.593984584E+01  2.050238732E+00  2.498459808E+01  2.107342426E-07  0.00000E+00  9.000E+00
      12     1     5     5     0     0  6.885200780E+01  1.579013041E+01 -4.444180986E+01  8.345658548E+01  2.739220927E-06  0.00000E+00  9.000E+00
      13     1     6     6     0     0 -6.458058271E+01  1.149401258E+02 -1.082674422E+02  1.705981337E+02  2.697398305E-06  0.00000E+00  9.000E+00
     -14     1     6     6     0     0 -3.020238837E+01  2.980655210E+01 -1.189732268E+02  1.263140669E+02  1.348699152E-06  0.00000E+00  9.000E+00
       5     1     3     3   502     0 -9.467180148E+00 -8.102279755E+01 -6.211982522E+01  1.026438328E+02  4.750000000E+00  0.00000E+00  9.000E+00
      -5     1     4     4     0   504 -4.514549379E+01  1.561938850E+01  1.400047467E+01  5.000656655E+01  4.750000000E+00  0.00000E+00  9.000E+00
      21     1     1     2   504   511  9.967340400E+01 -1.110732451E+02 -6.002935357E+02  6.185663927E+02  1.321449896E-05  0.00000E+00  9.000E+00
</event>
<event>
     13  10001  1.00000E+00  2.43276E+02 -1.00000E+00  1.10460E-01
      21    -1     0     0   502   503  0.000000000E+00  0.000000000E+00  4.411893505E+02  4.411893505E+02  0.000000000E+00  0.00000E+00  9.000E+00
      21    -1     0     0   503   512  0.000000000E+00  0.000000000E+00 -5.540798895E+02  5.540798895E+02  0.000000000E+00  0.00000E+00  9.000E+00
       6     2     1     2   502     0 -9.367402709E+01  2.214960889E+02  2.395585226E+02  3.805359727E+02  1.720000000E+02  0.00000E+00  9.000E+00
      -6     2     1     2     0   504 -3.421817701E+01 -1.454926136E+01  1.218426938E+01  1.763945041E+02  1.720000000E+02  0.00000E+00  9.000E+00
      24     2     3     3     0     0 -9.202084381E+01  1.253568869E+02  7.852379023E+01  1.929187381E+02  8.288226044E+01  0.00000E+00  9.000E+00
     -24     2     4     4     0     0 -8.418868723E+00 -5.538428504E+01 -3.815732770E+01  1.064663812E+02  8.210245001E+01  0.00000E+00  9.000E+00
     -11     1     5     5     0     0 -7.676917082E+01  3.552015691E+01  4.509750982E+01  9.585912856E+01  1.066240300E-06  0.00000E+00  9.000E+00
      12     1     5     5     0     0 -1.525167299E+01  8.983673001E+01  3.342628040E+01  9.705960957E+01  2.286830675E-06  0.00000E+00  9.000E+00
      13     1     6     6     0     0 -2.508495448E+01 -1.023445526E+01  1.798524777E+01  3.251873541E+01  4.768371582E-07  0.00000E+00  9.000E+00
     -14     1     6     6     0     0  1.666608576E+01 -4.514982978E+01 -5.614257546E+01  7.394764582E+01  3.162979880E-06  0.00000E+00  9.000E+00
       5     1     3     3   502     0 -1.653183282E+00  9.613920201E+01  1.610347323E+02  1.876172345E+02  4.750000000E+00  0.00000E+00  9.000E+00
      -5     1     4     4     0   504 -2.579930829E+01  4.083502368E+01  5.034159707E+01  6.992812283E+01  4.750000000E+00  0.00000E+00  9.000E+00
      21     1     1     2   504   512  1.278922041E+02 -2.069468276E+02 -3.646333309E+02  4.383387632E+02  5.394796609E-06  0.00000E+00  9.000E+00
</event>
<event>
     13  10001  1.00000E+00  6.30462E+01 -1.00000E+00  1.36357E-01
      21    -1     0     0   502   503  0.000000000E+00  0.000000000E+00  8.786251401E+01  8.786251401E+01  0.000000000E+00  0.00000E+00  9.000E+00
      21    -1     0     0   503   511  0.000000000E+00  0.000000000E+00 -1.133473657E+03  1.133473657E+03  0.000000000E+00  0.00000E+00  9.000E+00
       6     2     1     2   502     0  2.942969354E+01  1.745889427E+02 -6.467166682E+02  6.922238473E+02  1.720000000E+02  0.00000E+00  9.000E+00
      -6     2     1     2     0   504 -6.536149022E+01 -1.227842779E+02 -1.380316658E+02  2.607390344E+02  1.720000000E+02  0.00000E+00  9.000E+00
      24     2     3     3     0     0 -3.118835481E+01  1.409639063E+02 -5.413893707E+02  5.660430525E+02  8.036635025E+01  0.00000E+00  9.000E+00
     -24     2     4     4     0     0 -1.076021926E+02 -1.124302019E+02 -1.239824783E+02  2.147887787E+02  8.089364842E+01  0.00000E+00  9.000E+00
     -11     1     5     5     0     0  2.223733927E+01  2.728106372E+01 -1.810100891E+02  1.844001303E+02  1.907348633E-06  0.00000E+00  9.000E+00
      12     1     5     5     0     0 -5.342569408E+01  1.136828426E+02 -3.603792816E+02  3.816429222E+02  1.009274029E-05  0.00000E+00  9.000E+00
      13     1     6     6     0     0 -1.115702009E+02 -8.345260269E+01 -1.224687914E+02  1.855016212E+02  3.015782986E-06  0.00000E+00  9.000E+00
     -14     1     6     6     0     0  3.968008211E+00 -2.897759918E+01 -1.513686963E+00  2.928715745E+01  3.168030325E-07  0.00000E+00  9.000E+00
       5     1     3     3   502     0  6.061804836E+01  3.362503640E+01 -1.053272975E+02  1.261807947E+02  4.750000000E+00  0.00000E+00  9.000E+00
      -5     1     4     4     0   504  4.224070243E+01 -1.035407600E+01 -1.404918741E+01  4.595025570E+01  4.750000000E+00  0.00000E+00  9.000E+00
      21     1     1     2   504   511  3.593179667E+01 -5.180466488E+01 -2.608628088E+02  2.683732891E+02  3.814697266E-06  0.00000E+00  9.000E+00
</event>
<event>
     13  10001  1.00000E+00  5.52749E+00 -1.00000E+00  2.40014E-01
      21    -1     0     0   502   512  0.000000000E+00  0.000000000E+00  1.334995238E+02  1.334995238E+02  0.000000000E+00  0.00000E+00  9.000E+00
      21    -1     0     0   503   504  0.000000000E+00  0.000000000E+00 -3.781984548E+02  3.781984548E+02  0.000000000E+00  0.00000E+00  9.000E+00
       6     2     1     2   502     0 -4.211632012E+01 -2.796543094E+00 -9.207198187E+01  1.996067507E+02  1.720000000E+02  0.00000E+00  9.000E+00
      -6     2     1     2     0   504  4.676724048E+01  5.783528485E+00 -1.979471636E+02  2.664351770E+02  1.720000000E+02  0.00000E+00  9.000E+00
      24     2     3     3     0     0 -6.631703440E+00 -6.185994546E+01 -5.949651631E+01  1.232433630E+02  8.819557092E+01  0.00000E+00  9.000E+00
     -24     2     4     4     0     0  9.861713440E+01  1.121289604E+01 -1.459526318E+02  1.926525004E+02  7.721234972E+01  0.00000E+00  9.000E+00
     -11     1     5     5     0     0 -2.882498677E+01  9.747041548E+00 -2.985504970E+01  4.262873061E+01  1.066240300E-06  0.00000E+00  9.000E+00
      12     1     5     5     0     0  2.219328333E+01 -7.160698701E+01 -2.964146661E+01  8.061463240E+01  2.697398305E-06  0.00000E+00  9.000E+00
      13     1     6     6     0     0  9.133901674E+01  1.048211849E+01 -6.798984549E+01  1.143473213E+02  3.015782986E-06  0.00000E+00  9.000E+00
     -14     1     6     6     0     0  7.278117659E+00  7.307775588E-01 -7.796278635E+01  7.830517919E+01  9.536743164E-07  0.00000E+00  9.000E+00
       5     1     3     3   502     0 -3.548461668E+01  5.906340237E+01 -3.257546557E+01  7.636338767E+01  4.750000000E+00  0.00000E+00  9.000E+00
      -5     1     4     4     0   504 -5.184989393E+01 -5.429367559E+00 -5.199453175E+01  7.378267658E+01  4.750000000E+00  0.00000E+00  9.000E+00
      21     1     1     2   503   512 -4.650920355E+00 -2.986985392E+00  4.532021451E+01  4.565605092E+01  1.168007728E-06  0.00000E+00  9.000E+00
</event>
<event>
     13  10001  1.00000E+00  1.64457E+01 -1.00000E+00  1.78532E-01
      21    -1     0     0   503   511  0.000000000E+00  0.000000000E+00  1.100603544E+03  1.100603544E+03  0.000000000E+00  0.00000E+00  9.000E+00
      21    -1     0     0   502   503  0.000000000E+00  0.000000000E+00 -4.208336135E+01  4.208336135E+01  0.000000000E+00  0.00000E+00  9.000E+00
       6     2     1     2   502     0 -1.430215068E+01  5.901192101E+01  2.767681224E+02  3.314687797E+02  1.720000000E+02  0.00000E+00  9.000E+00
      -6     2     1     2     0   504 -2.138712708E+00 -5.861211798E+01  5.576401121E+02  5.865035798E+02  1.720000000E+02  0.00000E+00  9.000E+00
      24     2     3     3     0     0  3.033803565E+01  3.380827881E+00  2.299425632E+02  2.460125906E+02  8.195600020E+01  0.00000E+00  9.000E+00
     -24     2     4     4     0     0 -4.279290010E+00 -5.439298217E-01  1.182978233E+02  1.433098233E+02  8.077575301E+01  0.00000E+00  9.000E+00
     -11     1     5     5     0     0  2.659129118E+00 -2.476741813E+01  1.829533026E+02  1.846412925E+02  2.697398305E-06  0.00000E+00  9.000E+00
      12     1     5     5     0     0  2.767890653E+01  2.814824601E+01  4.698926062E+01  6.137129813E+01  1.507891493E-06  0.00000E+00  9.000E+00
      13     1     6     6     0     0 -2.286440369E+01 -3.463178727E+01  5.262521120E+01  6.701906072E+01  1.507891493E-06  0.00000E+00  9.000E+00
     -14     1     6     6     0     0  1.858511368E+01  3.408785745E+01  6.567261209E+01  7.629076257E+01  9.536743164E-07  0.00000E+00  9.000E+00
       5     1     3     3   502     0 -4.464018633E+01  5.563109313E+01  4.682555924E+01  8.545618911E+01  4.750000000E+00  0.00000E+00  9.000E+00
      -5     1     4     4     0   504  2.140577301E+00 -5.806818816E+01  4.393422888E+02  4.431937565E+02  4.750000000E+00  0.00000E+00  9.000E+00
      21     1     1     2   504   511  1.644086339E+01 -3.998030301E-01  2.241119483E+02  2.247145461E+02  3.814697266E-06  0.00000E+00  9.000E+00
</event>
<event>
     13  10001  1.00000E+00  1.49472E+02 -1.00000E+00  1.18558E-01
       1    -1     0     0   503     0  0.000000000E+00  0.000000000E+00  7.412814344E+02  7.412814344E+02  0.000000000E+00  0.00000E+00  9.000E+00
      21    -1     0     0   502   503  0.000000000E+00  0.000000000E+00 -7.950729247E+02  7.950729247E+02  0.000000000E+00  0.00000E+00  9.000E+00
       6     2     1     2   502     0 -3.445142255E+01 -1.413754463E+01 -5.541346643E+02  5.814086316E+02  1.720000000E+02  0.00000E+00  9.000E+00
      -6     2     1     2     0   504  1.317003366E+02  1.276477645E+02 -1.465338275E+02  2.910242138E+02  1.720000000E+02  0.00000E+00  9.000E+00
      24     2     3     3     0     0 -7.377126841E+01  3.092203961E+01 -3.957576424E+02  4.120502543E+02  8.223702275E+01  0.00000E+00  9.000E+00
     -24     2     4     4     0     0 -2.566718159E+00  5.937139711E+01 -6.907886962E+01  1.215806028E+02  8.048852033E+01  0.00000E+00  9.000E+00
     -11     1     5     5     0     0 -6.261050982E+01  5.086320848E+01 -2.111604222E+02  2.260439466E+02  6.031565972E-06  0.00000E+00  9.000E+00
      12     1     5     5     0     0 -1.116075859E+01 -1.994116887E+01 -1.845972202E+02  1.860063076E+02  3.814697266E-06  0.00000E+00  9.000E+00
      13     1     6     6     0     0 -8.948497797E+00  2.865401900E+01 -8.224841520E+01  8.755529807E+01  1.651812370E-06  0.00000E+00  9.000E+00
     -14     1     6     6     0     0  6.381779638E+00  3.071737810E+01  1.316954558E+01  3.402530470E+01  8.259061849E-07  0.00000E+00  9.000E+00
       5     1     3     3   502     0  3.931984587E+01 -4.505958424E+01 -1.583770219E+02  1.693583773E+02  4.750000000E+00  0.00000E+00  9.000E+00
      -5     1     4     4     0   504  1.342670547E+02  6.827636736E+01 -7.745495788E+01  1.694436110E+02  4.750000000E+00  0.00000E+00  9.000E+00
       1     1     1     2   504     0 -9.724891402E+01 -1.135102198E+02  6.468770015E+02  6.639215137E+02  0.000000000E+00  0.00000E+00  9.000E+00
</event>
<event>
     13  10001  1.00000E+00  3.85984E+00 -1.00000E+00  2.79241E-01
       1    -1     0     0   511     0  0.000000000E+00  0.000000000E+00  1.208166243E+02  1.208166243E+02  0.000000000E+00  0.00000E+00  9.000E+00
      -1    -1     0     0     0   512  0.000000000E+00  0.000000000E+00 -4.196328279E+02  4.196328279E+02  0.000000000E+00  0.00000E+00  9.000E+00
       6     2     1     2   502     0  3.069486214E+01  3.687851234E+01 -3.807072326E-01  1.785674779E+02  1.720000000E+02  0.00000E+00  9.000E+00
      -6     2     1     2     0   512 -3.381477805E+01 -3.460595472E+01 -3.054526345E+02  3.538733152E+02  1.720000000E+02  0.00000E+00  9.000E+00
      24     2     3     3     0     0  7.267900190E+01 -1.741467477E+01 -2.746921569E+00  1.097301361E+02  8.029725385E+01  0.00000E+00  9.000E+00
     -24     2     4     4     0     0  9.112228786E+00 -8.007263859E+00 -2.879900414E+02  3.002289033E+02  8.397607676E+01  0.00000E+00  9.000E+00
     -11     1     5     5     0     0  7.119481784E+01  8.232924460E+00 -2.483441765E+01  7.585005888E+01  3.371747881E-07  0.00000E+00  9.000E+00
      12     1     5     5     0     0  1.484184058E+00 -2.564759924E+01  2.208749609E+01  3.388007722E+01  1.011524364E-06  0.00000E+00  9.000E+00
      13     1     6     6     0     0  4.363093199E+01  1.122442493E+01 -1.411676383E+02  1.481821448E+02  3.303624740E-06  0.00000E+00  9.000E+00
     -14     1     6     6     0     0 -3.451870320E+01 -1.923168879E+01 -1.468224031E+02  1.520467585E+02  1.907348633E-06  0.00000E+00  9.000E+00
       5     1     3     3   502     0 -4.198413976E+01  5.429318712E+01  2.366214336E+00  6.883734182E+01  4.750000000E+00  0.00000E+00  9.000E+00
      -5     1     4     4     0   512 -4.292700684E+01 -2.659869086E+01 -1.746259312E+01  5.364441192E+01  4.750000000E+00  0.00000E+00  9.000E+00
      21     1     1     2   511   502  3.119915914E+00 -2.272557623E+00  7.017138040E+00  8.008659047E+00  1.685873940E-07  0.00000E+00  9.000E+00
</event>
<event>
     13  10001  1.00000E+00  1.99199E+01 -1.00000E+00  1.70935E-01
      21    -1     0     0   513   512  0.000000000E+00  0.000000000E+00  1.423830711E+02  1.423830711E+02  0.000000000E+00  0.00000E+00  9.000E+00
       1    -1     0     0   502     0  0.000000000E+00  0.000000000E+00 -8.388141731E+02  8.388141731E+02  0.000000000E+00  0.00000E+00  9.000E+00
       6     2     1     2   502     0 -1.171486958E+02 -4.684875222E+01 -6.219803464E+02  6.575425263E+02  1.720000000E+02  0.00000E+00  9.000E+00
      -6     2     1     2     0   512  1.363980275E+02  5.197357247E+01 -1.329548498E+02  2.618523749E+02  1.720000000E+02  0.00000E+00  9.000E+00
      24     2     3     3     0     0 -2.161625330E+01 -4.472685029E+01 -4.587979566E+02  4.683812065E+02  8.011014987E+01  0.00000E+00  9.000E+00
     -24     2     4     4     0     0  1.366832956E+02  1.316712545E+01 -1.506758820E+02  2.189266344E+02  7.981198753E+01  0.00000E+00  9.000E+00
     -11     1     5     5     0     0  8.289973944E+00  1.277236192E+01 -2.172953909E+01  2.653355924E+01  3.371747881E-07  0.00000E+00  9.000E+00
      12     1     5     5     0     0 -2.990622724E+01 -5.749921222E+01 -4.370684175E+02  4.418476473E+02  0.000000000E+00  0.00000E+00  9.000E+00
      13     1     6     6     0     0  6.701612862E+01 -2.083747489E+01 -1.122974308E+02  1.324238454E+02  0.000000000E+00  0.00000E+00  9.000E+00
     -14     1     6     6     0     0  6.966716698E+01  3.400460033E+01 -3.837845121E+01  8.650278907E+01  1.066240300E-06  0.00000E+00  9.000E+00
       5     1     3     3   502     0 -9.553244248E+01 -2.121901925E+00 -1.631823899E+02  1.891613198E+02  4.750000000E+00  0.00000E+00  9.000E+00
      -5     1     4     4     0   512 -2.852681024E-01  3.880644702E+01  1.772103223E+01  4.292574043E+01  4.750000000E+00  0.00000E+00  9.000E+00
       1     1     1     2   513     0 -1.924933172E+01 -5.124820247E+00  5.850409426E+01  6.180234299E+01  6.743495762E-07  0.00000E+00  9.000E+00
</event>
<event>
     13  10001  1.00000E+00  4.92629E+01 -1.00000E+00  1.42499E-01
      21    -1     0     0   502   503  0.000000000E+00  0.000000000E+00  9.851345987E+02  9.851345987E+02  0.000000000E+00  0.00000E+00  9.000E+00
      21    -1     0     0   503   511  0.000000000E+00  0.000000000E+00 -1.497277322E+02  1.497277322E+02  0.000000000E+00  0.00000E+00  9.000E+00
       6     2     1     2   502     0  7.150013247E+01 -8.571642536E+01  8.531505116E+02  8.774447960E+02  1.720000000E+02  0.00000E+00  9.000E+00
      -6     2     1     2     0   504 -2.967032870E+01  1.117376366E+02 -1.922191699E+01  2.081324336E+02  1.720000000E+02  0.00000E+00  9.000E+00
      24     2     3     3     0     0  1.153131440E+02 -7.979706879E+01  6.310799571E+02  6.509662927E+02  7.635776726E+01  0.00000E+00  9.000E+00
     -24     2     4     4     0     0  1.735250094E+01  1.289363659E+02  2.200626070E+00  1.534658931E+02  8.137101355E+01  0.00000E+00  9.000E+00
     -11     1     5     5     0     0  2.525863027E+01 -1.353575314E+01  3.031337617E+02  3.044852911E+02  0.000000000E+00  0.00000E+00  9.000E+00
      12     1     5     5     0     0  9.005451372E+01 -6.626131565E+01  3.279461954E+02  3.464810016E+02  3.814697266E-06  0.00000E+00  9.000E+00
      13     1     6     6     0     0  9.421307851E-01  2.908966512E+01 -3.512347526E+01  4.561529065E+01  2.185142372E-06  0.00000E+00  9.000E+00
     -14     1     6     6     0     0  1.641037015E+01  9.984670083E+01  3.732410133E+01  1.078506025E+02  1.907348633E-06  0.00000E+00  9.000E+00
       5     1     3     3   502     0 -4.381301153E+01 -5.919356568E+00  2.220705545E+02  2.264785032E+02  4.750000000E+00  0.00000E+00  9.000E+00
      -5     1     4     4     0   504 -4.702282964E+01 -1.719872936E+01 -2.142254306E+01  5.466654050E+01  4.750000000E+00  0.00000E+00  9.000E+00
      21     1     1     2   504   511 -4.182980377E+01 -2.602121123E+01  1.478271916E+00  4.928510125E+01  8.970449533E-07  0.00000E+00  9.000E+00
</event>
<event>
     13  10001  1.00000E+00  7.38313E+00 -1.00000E+00  2.19725E-01
      21    -1     0     0   512   504  0.000000000E+00  0.000000000E+00  2.026147169E+02  2.026147169E+02  0.000000000E+00  0.00000E+00  9.000E+00
      21    -1     0     0   502   503  0.000000000E+00  0.000000000E+00 -1.959961454E+02  1.959961454E+02  0.000000000E+00  0.00000E+00  9.000E+00
       6     2     1     2   502     0 -4.657148957E+01 -4.346110658E+01 -2.453596814E+01  1.850507637E+02  1.720000000E+02  0.00000E+00  9.000E+00
      -6     2     1     2     0   504  3.919896509E+01  4.385678798E+01  2.441513653E-01  1.817801868E+02  1.720000000E+02  0.00000E+00  9.000E+00
      24     2     3     3     0     0 -7.664092478E+01  1.897796429E+01 -1.848289741E+01  1.153226441E+02  8.199817231E+01  0.00000E+00  9.000E+00
     -24     2     4     4     0     0  8.396530890E+01  4.168119862E+01  3.048725525E+01  1.275034279E+02  8.087123084E+01  0.00000E+00  9.000E+00
     -11     1     5     5     0     0 -5.160859691E+01  7.870863067E+00  2.958147827E+01  6.000384668E+01  7.539457465E-07  0.00000E+00  9.000E+00
      12     1     5     5     0     0 -2.503232787E+01  1.110710122E+01 -4.806437568E+01  5.531879740E+01  9.536743164E-07  0.00000E+00  9.000E+00
      13     1     6     6     0     0  4.184118819E+01 -1.240811625E-01  4.984510148E+01  6.507867982E+01  2.236564522E-06  0.00000E+00  9.000E+00
     -14     1     6     6     0     0  4.212412071E+01  4.180527979E+01 -1.935784623E+01  6.242474809E+01  1.369610464E-06  0.00000E+00  9.000E+00
       5     1     3     3   502     0  3.006943521E+01 -6.243907087E+01 -6.053070736E+00  6.972811965E+01  4.750000000E+00  0.00000E+00  9.000E+00
      -5     1     4     4     0   504 -4.476634381E+01  2.175589356E+00 -3.024310389E+01  5.427675893E+01  4.750000000E+00  0.00000E+00  9.000E+00
      21     1     1     2   512   503  7.372524477E+00 -3.956813951E-01  3.091038833E+01  3.177991170E+01  3.371747881E-07  0.00000E+00  9.000E+00
</event>
<event>
     13  10001  1.00000E+00  7.91662E+01 -1.00000E+00  1.31151E-01
      21    -1     0     0   503   504  0.000000000E+00  0.000000000E+00  5.513445381E+02  5.513445381E+02  0.000000000E+00  0.00000E+00  9.000E+00
      21    -1     0     0   502   511  0.000000000E+00  0.000000000E+00 -2.384845797E+02  2.384845797E+02  0.000000000E+00  0.00000E+00  9.000E+00
       6     2     1     2   502     0  8.393710764E+01 -1.772105972E+01 -5.126173375E+01  1.989252104E+02  1.720000000E+02  0.00000E+00  9.000E+00
      -6     2     1     2     0   504 -4.772112475E+00  1.729320661E+01  4.451869237E+02  4.775952524E+02  1.720000000E+02  0.00000E+00  9.000E+00
      24     2     3     3     0     0  8.365610507E+01  2.724460143E+01  1.413367077E+01  1.194197950E+02  7.950292180E+01  0.00000E+00  9.000E+00
     -24     2     4     4     0     0 -2.631207982E+01  7.281782544E+01  3.159308955E+02  3.351991962E+02  8.094077558E+01  0.00000E+00  9.000E+00
     -11     1     5     5     0     0  5.737647694E+00  7.966471840E-01  3.422987592E+01  3.471656166E+01  9.536743164E-07  0.00000E+00  9.000E+00
      12     1     5     5     0     0  7.791845738E+01  2.644795425E+01 -2.009620515E+01  8.470323338E+01  2.523185073E-06  0.00000E+00  9.000E+00
      13     1     6     6     0     0 -3.577186101E+00 -1.307495800E+00  1.692028943E+02  1.692457540E+02  1.907348633E-06  0.00000E+00  9.000E+00
     -14     1     6     6     0     0 -2.273489372E+01  7.412532124E+01  1.467280012E+02  1.659534422E+02  4.672030912E-06  0.00000E+00  9.000E+00
       5     1     3     3   502     0  2.810025701E-01 -4.496566115E+01 -6.539540451E+01  7.950541539E+01  4.750000000E+00  0.00000E+00  9.000E+00
      -5     1     4     4     0   504  2.153996735E+01 -5.552461882E+01  1.292560283E+02  1.423960562E+02  4.750000000E+00  0.00000E+00  9.000E+00
      21     1     1     2   503   511 -7.916499516E+01  4.278531024E-01 -8.106523161E+01  1.133086550E+02  1.348699152E-06  0.00000E+00  9.000E+00
</event>
<event>
     13  10001  1.00000E+00  5.86543E+01 -1.00000E+00  1.38098E-01
      21    -1     0     0   503   512  0.000000000E+00  0.000000000E+00  2.199161708E+02  2.199161708E+02  0.000000000E+00  0.00000E+00  9.000E+00
      21    -1     0     0   502   503  0.000000000E+00  0.000000000E+00 -5.123449109E+02  5.123449109E+02  0.000000000E+00  0.00000E+00  9.000E+00
       6     2     1     2   502     0  1.033775005E+01  9.581409103E+01 -1.876312005E+02  2.721703080E+02  1.720000000E+02  0.00000E+00  9.000E+00
      -6     2     1     2     0   504 -5.940876848E+01 -6.368370858E+01 -2.428628847E+02  3.100828877E+02  1.720000000E+02  0.00000E+00  9.000E+00
      24     2     3     3     0     0 -1.159661534E+01 -1.695671571E+01 -1.019850131E+02  1.287959617E+02  7.593052853E+01  0.00000E+00  9.000E+00
     -24     2     4     4     0     0 -1.037524505E+02 -2.877706716E+01 -1.877174676E+02  2.310359696E+02  8.091403467E+01  0.00000E+00  9.000E+00
     -11     1     5     5     0     0 -1.185734731E+00  3.813033273E+00  1.190685094E+01  1.255859423E+01  5.591411304E-07  0.00000E+00  9.000E+00
      12     1     5     5     0     0 -1.041088061E+01 -2.076974899E+01 -1.138918640E+02  1.162373675E+02  2.336015456E-06  0.00000E+00  9.000E+00
      13     1     6     6     0     0 -1.883448132E+01  2.711400530E+01 -4.483372365E+01  5.567737194E+01  6.743495762E-07  0.00000E+00  9.000E+00
     -14     1     6     6     0     0 -8.491796917E+01 -5.589107246E+01 -1.428837440E+02  1.753585976E+02  1.907348633E-06  0.00000E+00  9.000E+00
       5     1     3     3   502     0  2.193436539E+01  1.127708067E+02 -8.564618748E+01  1.433743463E+02  4.750000000E+00  0.00000E+00  9.000E+00
      -5     1     4     4     0   504  4.434368200E+01 -3.490664142E+01 -5.514541703E+01  7.904691815E+01  4.750000000E+00  0.00000E+00  9.000E+00
      21     1     1     2   504   512  4.907101843E+01 -3.213038245E+01  1.380653452E+02  1.500078860E+02  1.907348633E-06  0.00000E+00  9.000E+00
</event>
<event>
     13  10001  1.00000E+00  6.83871E+01 -1.00000E+00  1.34450E-01
       1    -1     0     0   502     0  0.000000000E+00  0.000000000E+00  2.540320487E+02  2.540320487E+02  0.000000000E+00  0.00000E+00  9.000E+00
      21    -1     0     0   503   504  0.000000000E+00  0.000000000E+00 -2.536398132E+02  2.536398132E+02  0.000000000E+00  0.00000E+00  9.000E+00
       6     2     1     2   502     0 -2.441012662E+01  8.777619926E+01  8.111984853E+01  2.108671270E+02  1.720000000E+02  0.00000E+00  9.000E+00
      -6     2     1     2     0   504  9.255655953E+01 -8.204337421E+01 -3.547985652E+01  2.148037527E+02  1.720000000E+02  0.00000E+00  9.000E+00
      24     2     3     3     0     0 -3.036360111E+00  1.148552494E+01 -1.778487647E+01  8.405304260E+01  8.128637877E+01  0.00000E+00  9.000E+00
     -24     2     4     4     0     0 -1.405327147E+01 -6.317888101E+01 -8.112164951E+00  1.030313133E+02  7.975323729E+01  0.00000E+00  9.000E+00
     -11     1     5     5     0     0 -3.605537837E+01 -1.527461748E+01 -1.311781331E+01  4.129626223E+01  5.057621821E-07  0.00000E+00  9.000E+00
      12     1     5     5     0     0  3.301901826E+01  2.676014242E+01 -4.667063162E+00  4.275678037E+01  7.839767002E-07  0.00000E+00  9.000E+00
      13     1     6     6     0     0  2.035525624E+01  3.614774292E-01 -2.142660563E+01  2.955615928E+01  7.152557373E-07  0.00000E+00  9.000E+00
     -14     1     6     6     0     0 -3.440852771E+01 -6.354035844E+01  1.331444068E+01  7.347515403E+01  4.129530925E-07  0.00000E+00  9.000E+00
       5     1     3     3   502     0 -2.137376651E+01  7.629067432E+01  9.890472500E+01  1.268140844E+02  4.750000000E+00  0.00000E+00  9.000E+00
      -5     1     4     4     0   504  1.066098310E+02 -1.886449320E+01 -2.736769157E+01  1.117724394E+02  4.750000000E+00  0.00000E+00  9.000E+00
       1     1     1     2   503     0 -6.814643291E+01 -5.732825051E+00 -4.524775647E+01  8.200098211E+01  1.168007728E-06  0.00000E+00  9.000E+00
</event>
<event>
     13  10001  1.00000E+00  3.63243E+01 -1.00000E+00  1.50917E-01
      21    -1     0     0   502   511  0.000000000E+00  0.000000000E+00  8.493336066E+01  8.493336066E+01  0.000000000E+00  0.00000E+00  9.000E+00
      21    -1     0     0   503   504  0.000000000E+00  0.000000000E+00 -9.484947774E+02  9.484947774E+02  0.000000000E+00  0.00000E+00  9.000E+00
       6     2     1     2   502     0 -1.549163950E+02 -1.302226005E+01 -1.581820975E+02  2.806674984E+02  1.720000000E+02  0.00000E+00  9.000E+00
      -6     2     1     2     0   504  1.197580094E+02  3.893229561E+00 -6.701077144E+02  7.021292523E+02  1.720000000E+02  0.00000E+00  9.000E+00
      24     2     3     3     0     0 -6.198817915E+01  2.748365044E+01 -1.652364868E+01  1.064088955E+02  8.032394830E+01  0.00000E+00  9.000E+00
     -24     2     4     4     0     0  3.124668959E+01 -5.573650698E+01 -3.364794226E+02  3.518145955E+02  8.044994670E+01  0.00000E+00  9.000E+00
     -11     1     5     5     0     0 -1.759201797E+00  1.948000135E+01 -3.736549539E+01  4.217517622E+01  8.259061849E-07  0.00000E+00  9.000E+00
      12     1     5     5     0     0 -6.022897736E+01  8.003649091E+00  2.084184671E+01  6.423371923E+01  3.430246012E-06  0.00000E+00  9.000E+00
      13     1     6     6     0     0 -1.504842908E+01  1.170072817E+01 -9.389053575E+01  9.580602779E+01  1.348699152E-06  0.00000E+00  9.000E+00
     -14     1     6     6     0     0  4.629511866E+01 -6.743723515E+01 -2.425888869E+02  2.560085677E+02  3.814697266E-06  0.00000E+00  9.000E+00
       5     1     3     3   502     0 -9.292821583E+01 -4.050591049E+01 -1.416584488E+02  1.742586029E+02  4.750000000E+00  0.00000E+00  9.000E+00
      -5     1     4     4     0   504  8.851131981E+01  5.962973654E+01 -3.336282918E+02  3.503146568E+02  4.750000000E+00  0.00000E+00  9.000E+00
      21     1     1     2   503   511  3.515838559E+01  9.129030490E+00 -3.527160486E+01  5.063138734E+01  1.168007728E-06  0.00000E+00  9.000E+00
</event>
<event>
     13  10001  1.00000E+00  3.57792E+01 -1.00000E+00  1.51361E-01
       1    -1     0     0   502     0  0.000000000E+00  0.000000000E+00  1.498093962E+03  1.498093962E+03  0.000000000E+00  0.00000E+00  9.000E+00
      21    -1     0     0   503   504  0.000000000E+00  0.000000000E+00 -1.211710752E+02  1.211710752E+02  0.000000000E+00  0.00000E+00  9.000E+00
       6     2     1     2   502     0  5.758142199E+01  8.319279696E-01  2.829225501E+01  1.835776783E+02  1.720000000E+02  0.00000E+00  9.000E+00
      -6     2     1     2     0   504 -2.190563795E+01  1.886283739E+00  1.304713299E+02  2.170027257E+02  1.720000000E+02  0.00000E+00  9.000E+00
      24     2     3     3     0     0  2.508095341E+01 -5.417391399E+01  5.462958441E+01  1.143090668E+02  8.073601482E+01  0.00000E+00  9.000E+00
     -24     2     4     4     0     0 -3.861683408E+01  3.237529248E+01  1.486644987E+02  1.774755500E+02  8.280711469E+01  0.00000E+00  9.000E+00
     -11     1     5     5     0     0  3.724275691E+01 -6.874847239E+01  5.453230277E+01  9.532653064E+01  1.784161275E-06  0.00000E+00  9.000E+00
      12     1     5     5     0     0 -1.216180350E+01  1.457455840E+01  9.728163816E-02  1.898253621E+01  6.996743307E-07  0.00000E+00  9.000E+00
      13     1     6     6     0     0 -3.914654577E+01 -2.026538400E+01  6.195398391E+01  7.603574131E+01  2.023048729E-06  0.00000E+00  9.000E+00
     -14     1     6     6     0     0  5.297116928E-01  5.264067648E+01  8.671051476E+01  1.014398087E+02  1.651812370E-06  0.00000E+00  9.000E+00
       5     1     3     3   502     0  3.250046859E+01  5.500584196E+01 -2.633732940E+01  6.926861142E+01  4.750000000E+00  0.00000E+00  9.000E+00
      -5     1     4     4     0   504  1.671119612E+01 -3.048900874E+01 -1.819316877E+01  3.952717572E+01  4.750000000E+00  0.00000E+00  9.000E+00
       1     1     1     2   503     0 -3.567578404E+01 -2.718211708E+00  1.218159301E+03  1.218684633E+03  2.157918644E-05  0.00000E+00  9.000E+00
</event>
<event>
     13  10001  1.00000E+00  6.81910E+01 -1.00000E+00  1.34516E-01
      21    -1     0     0   502   503  0.000000000E+00  0.000000000E+00  2.751407204E+02  2.751407204E+02  0.000000000E+00  0.00000E+00  9.000E+00
      21    -1     0     0   511   504  0.000000000E+00  0.000000000E+00 -6.008698406E+02  6.008698406E+02  0.000000000E+00  0.00000E+00  9.000E+00
       6     2     1     2   502     0  4.064008122E+01  9.381396936E+01  3.257042547E+01  2.027252073E+02  1.720000000E+02  0.00000E+00  9.000E+00
      -6     2     1     2     0   504 -5.265451018E+01 -2.668974334E+01  1.016350764E+02  2.083231350E+02  1.720000000E+02  0.00000E+00  9.000E+00
      24     2     3     3     0     0  2.250833394E+01  1.218027282E+02  6.081661463E+01  1.587645364E+02  7.851743576E+01  0.00000E+00  9.000E+00
     -24     2     4     4     0     0 -3.848937843E+01 -7.764539866E+01  9.905608999E+01  1.551597695E+02  8.217180122E+01  0.00000E+00  9.000E+00
     -11     1     5     5     0     0 -2.757098793E+01  6.248193465E+01  3.635858336E+01  7.736987862E+01  1.261592536E-06  0.00000E+00  9.000E+00
      12     1     5     5     0     0  5.007932187E+01  5.932079354E+01  2.445803127E+01  8.139465780E+01  1.066240300E-06  0.00000E+00  9.000E+00
      13     1     6     6     0     0 -3.395380653E+01 -3.787835794E+00  6.557466985E+01  7.394082772E+01  1.348699152E-06  0.00000E+00  9.000E+00
     -14     1     6     6     0     0 -4.535571897E+00 -7.385756287E+01  3.348142014E+01  8.121894175E+01  1.581489940E-06  0.00000E+00  9.000E+00
       5     1     3     3   502     0  1.813174728E+01 -2.798875882E+01 -2.824618916E+01  4.396067086E+01  4.750000000E+00  0.00000E+00  9.000E+00
      -5     1     4     4     0   504 -1.416513175E+01  5.095565533E+01  2.578986394E+00  5.316336556E+01  4.750000000E+00  0.00000E+00  9.000E+00
      21     1     1     2   511   503  1.201442895E+01 -6.712422603E+01 -4.599346220E+02  4.649622186E+02  0.000000000E+00  0.00000E+00  9.000E+00
</event>
<event>
     13  10001  1.00000E+00  2.41227E+02 -1.00000E+00  1.10591E-01
      21    -1     0     0   502   503  0.000000000E+00  0.000000000E+00  1.143561228E+02  1.143561228E+02  0.000000000E+00  0.00000E+00  9.000E+00
       2    -1     0     0   503     0  0.000000000E+00  0.000000000E+00 -2.134986512E+03  2.134986512E+03  0.000000000E+00  0.00000E+00  9.000E+00
       6     2     1     2   502     0 -1.335332071E+02  6.043746129E+01 -8.303249470E+02  8.605273510E+02  1.720000000E+02  0.00000E+00  9.000E+00
      -6     2     1     2     0   504 -6.390418282E+01  7.815887445E+01 -2.758996035E+01  2.013399120E+02  1.720000000E+02  0.00000E+00  9.000E+00
      24     2     3     3     0     0 -4.678338983E+01  1.754437278E+00 -2.096120313E+02  2.310225342E+02  8.510255006E+01  0.00000E+00  9.000E+00
     -24     2     4     4     0     0 -6.406127583E+01 -8.421621896E+00 -4.793767511E+01  1.122736500E+02  7.831079753E+01  0.00000E+00  9.000E+00
     -11     1     5     5     0     0 -2.466393994E+01 -3.025099648E+01 -1.738514844E+02  1.781790429E+02  1.907348633E-06  0.00000E+00  9.000E+00
      12     1     5     5     0     0 -2.211944988E+01  3.200543376E+01 -3.576054696E+01  5.284349129E+01  8.259061849E-07  0.00000E+00  9.000E+00
      13     1     6     6     0     0 -3.879191072E+01 -3.328137889E+00 -6.883927920E+01  7.908688387E+01  0.000000000E+00  0.00000E+00  9.000E+00
     -14     1     6     6     0     0 -2.526936511E+01 -5.093484007E+00  2.090160409E+01  3.318676612E+01  1.348699152E-06  0.00000E+00  9.000E+00
       5     1     3     3   502     0 -8.674981731E+01  5.868302401E+01 -6.207129157E+02  6.295048168E+02  4.750000000E+00  0.00000E+00  9.000E+00
      -5     1     4     4     0   504  1.570930142E-01  8.658049635E+01  2.034771476E+01  8.906626197E+01  4.750000000E+00  0.00000E+00  9.000E+00
       2     1     1     2   504     0  1.974373900E+02 -1.385963357E+02 -1.162715482E+03  1.187475372E+03  2.642899792E-05  0.00000E+00  9.000E+00
</event>
<event>
     13  10001  1.00000E+00  1.44495E+01 -1.00000E+00  1.84070E-01
      -2    -1     0     0     0   512  0.000000000E+00  0.000000000E+00  2.550540453E+01  2.550540453E+01  0.000000000E+00  0.00000E+00  9.000E+00
       2    -1     0     0   511     0  0.000000000E+00  0.000000000E+00 -2.080574310E+03  2.080574310E+03  0.000000000E+00  0.00000E+00  9.000E+00
       6     2     1     2   502     0  1.014295593E+02  6.560859906E+01 -8.242512960E+02  8.506272055E+02  1.720000000E+02  0.00000E+00  9.000E+00
      -6     2     1     2     0   512 -1.154760709E+02 -6.221994183E+01 -9.521965457E+02  9.764570169E+02  1.720000000E+02  0.00000E+00  9.000E+00
      24     2     3     3     0     0 -1.405499640E+01  6.338877387E+01 -3.986735588E+02  4.096276782E+02  6.810689124E+01  0.00000E+00  9.000E+00
     -24     2     4     4     0     0 -9.064750928E-01 -5.736718534E+01 -3.561823923E+02  3.694931175E+02  7.979631359E+01  0.00000E+00  9.000E+00
     -11     1     5     5     0     0  5.462339380E+00  4.301710200E+01 -3.549723782E+02  3.576110981E+02  7.629394531E-06  0.00000E+00  9.000E+00
      12     1     5     5     0     0 -1.951733578E+01  2.037167187E+01 -4.370118060E+01  5.201658001E+01  2.132480600E-06  0.00000E+00  9.000E+00
      13     1     6     6     0     0 -7.133614291E+00 -2.254736489E+01 -1.866512058E+01  3.012737696E+01  1.685873940E-06  0.00000E+00  9.000E+00
     -14     1     6     6     0     0  6.227139199E+00 -3.481982045E+01 -3.375172717E+02  3.393657405E+02  6.607249480E-06  0.00000E+00  9.000E+00
       5     1     3     3   502     0  1.154845557E+02  2.219825190E+00 -4.255777372E+02  4.409995274E+02  4.750000000E+00  0.00000E+00  9.000E+00
      -5     1     4     4     0   512 -1.145695958E+02 -4.852756495E+00 -5.960141535E+02  6.069638994E+02  4.750000000E+00  0.00000E+00  9.000E+00
      21     1     1     2   511   502  1.404651162E+01 -3.388657231E+00 -2.786210640E+02  2.789954924E+02  0.000000000E+00  0.00000E+00  9.000E+00
</event>
<event>
     13  10001  1.00000E+00  9.78872E+01 -1.00000E+00  1.26651E-01
      21    -1     0     0   512   503  0.000000000E+00  0.000000000E+00  1.990848302E+02  1.990848302E+02  0.000000000E+00  0.00000E+00  9.000E+00
      21    -1     0     0   503   504  0.000000000E+00  0.000000000E+00 -8.614646281E+02  8.614646281E+02  0.000000000E+00  0.00000E+00  9.000E+00
       6     2     1     2   502     0  2.117024891E+01  4.180946191E+01 -2.512447495E+02  3.080651469E+02  1.720000000E+02  0.00000E+00  9.000E+00
      -6     2     1     2     0   504  2.419961461E+01  4.492848506E+01 -5.522953357E+02  5.807050267E+02  1.720000000E+02  0.00000E+00  9.000E+00
      24     2     3     3     0     0  1.862274457E+01 -2.367396545E+01 -6.072524273E+01  1.065339731E+02  8.218679370E+01  0.00000E+00  9.000E+00
     -24     2     4     4     0     0  6.480779357E+01  6.993749990E+00 -4.698621037E+02  4.811767966E+02  8.069541817E+01  0.00000E+00  9.000E+00
     -11     1     5     5     0     0  3.655704093E+01  1.878861501E+01 -3.328747039E+01  5.289125618E+01  1.066240300E-06  0.00000E+00  9.000E+00
      12     1     5     5     0     0 -1.793429636E+01 -4.246258045E+01 -2.743777234E+01  5.364271690E+01  2.105655877E-06  0.00000E+00  9.000E+00
      13     1     6     6     0     0  2.508816894E+00 -2.918308610E+01 -9.345461522E+01  9.793728494E+01  1.907348633E-06  0.00000E+00  9.000E+00
     -14     1     6     6     0     0  6.229897667E+01  3.617683609E+01 -3.764074884E+02  3.832395117E+02  5.394796609E-06  0.00000E+00  9.000E+00
       5     1     3     3   502     0  2.547504343E+00  6.548342736E+01 -1.905195068E+02  2.015311738E+02  4.750000000E+00  0.00000E+00  9.000E+00
      -5     1     4     4     0   504 -4.060817896E+01  3.793473507E+01 -8.243323209E+01  9.952823004E+01  4.750000000E+00  0.00000E+00  9.000E+00
      21     1     1     2   512   502 -4.536986352E+01 -8.673794697E+01  1.411602874E+02  1.717792848E+02  0.000000000E+00  0.00000E+00  9.000E+00
</event>
<event>
     13  10001  1.00000E+00  2.04226E+01 -1.00000E+00  1.69996E-01
      21    -1     0     0   503   504  0.000000000E+00  0.000000000E+00  1.841541302E+02  1.841541302E+02  0.000000000E+00  0.00000E+00  9.000E+00
      21    -1     0     0   511   503  0.000000000E+00  0.000000000E+00 -5.813938936E+02  5.813938936E+02  0.000000000E+00  0.00000E+00  9.000E+00
       6     2     1     2   502     0 -6.772168520E+00 -8.198803529E+00 -3.018439887E+02  3.475728358E+02  1.720000000E+02  0.00000E+00  9.000E+00
      -6     2     1     2     0   504 -7.888477064E+00 -6.019070069E+00  1.146447498E+02  2.069441372E+02  1.720000000E+02  0.00000E+00  9.000E+00
      24     2     3     3     0     0  6.112637752E+01 -1.319110343E+01 -1.560252643E+02  1.865734616E+02  8.096501847E+01  0.00000E+00  9.000E+00
     -24     2     4     4     0     0  4.017502792E+01 -5.092911652E+01  4.801031130E+01  1.131906110E+02  7.936823454E+01  0.00000E+00  9.000E+00
     -11     1     5     5     0     0  5.269984781E+00 -1.252679067E+01  6.245869255E+00  1.495674119E+01  7.539457465E-07  0.00000E+00  9.000E+00
      12     1     5     5     0     0  5.585639274E+01 -6.643127551E-01 -1.622711336E+02  1.716167204E+02  2.697398305E-06  0.00000E+00  9.000E+00
      13     1     6     6     0     0  1.181644957E+01 -1.585185759E+00  5.461042148E+01  5.589668531E+01  9.536743164E-07  0.00000E+00  9.000E+00
     -14     1     6     6     0     0  2.835857835E+01 -4.934393076E+01 -6.600110179E+00  5.729392571E+01  1.261592536E-06  0.00000E+00  9.000E+00
       5     1     3     3   502     0 -6.789854604E+01  4.992299901E+00 -1.458187244E+02  1.609993742E+02  4.750000000E+00  0.00000E+00  9.000E+00
      -5     1     4     4     0   504 -4.806350498E+01  4.491004645E+01  6.663443848E+01  9.375352620E+01  4.750000000E+00  0.00000E+00  9.000E+00
      21     1     1     2   511   502  1.466064558E+01  1.421787360E+01 -2.100405245E+02  2.110310508E+02  0.000000000E+00  0.00000E+00  9.000E+00
</event>
<event>
     13  10001  1.00000E+00  8.46318E+01 -1.00000E+00  1.29701E-01
      21    -1     0     0   503   504  0.000000000E+00  0.000000000E+00  2.015445135E+02  2.015445135E+02  0.000000000E+00  0.00000E+00  9.000E+00
      -1    -1     0     0     0   503  0.000000000E+00  0.000000000E+00 -5.699180127E+02  5.699180127E+02  0.000000000E+00  0.00000E+00  9.000E+00
       6     2     1     2   502     0  1.376286586E+02 -1.305881646E+02 -1.279709066E+02  2.862786568E+02  1.720000000E+02  0.00000E+00  9.000E+00
      -6     2     1     2     0   504 -2.221973378E+02  1.273192182E+02 -1.056894975E+02  3.260921804E+02  1.720000000E+02  0.00000E+00  9.000E+00
      24     2     3     3     0     0  5.933482964E+01 -1.415247375E+02 -7.099680717E+01  1.887176872E+02  8.380898229E+01  0.00000E+00  9.000E+00
     -24     2     4     4     0     0 -1.150560552E+02  8.706136321E+01 -1.305416804E+02  2.088738251E+02  7.595767039E+01  0.00000E+00  9.000E+00
     -11     1     5     5     0     0  3.679243818E+01 -5.455912150E+01 -7.374392350E+01  9.883596258E+01  1.651812370E-06  0.00000E+00  9.000E+00
      12     1     5     5     0     0  2.254239146E+01 -8.696561598E+01  2.747116327E+00  8.988172464E+01  1.617033478E-06  0.00000E+00  9.000E+00
      13     1     6     6     0     0 -4.493831188E+00  4.505453318E+00  1.004196858E+01  1.188842972E+01  8.259061849E-07  0.00000E+00  9.000E+00
     -14     1     6     6     0     0 -1.105622240E+02  8.255590990E+01 -1.405836490E+02  1.969853954E+02  3.814697266E-06  0.00000E+00  9.000E+00
       5     1     3     3   502     0  7.829382900E+01  1.093657285E+01 -5.697409945E+01  9.756096962E+01  4.750000000E+00  0.00000E+00  9.000E+00
      -5     1     4     4     0   504 -1.071412826E+02  4.025785499E+01  2.485218290E+01  1.172183553E+02  4.750000000E+00  0.00000E+00  9.000E+00
      -1     1     1     2     0   502  8.456867919E+01  3.268946426E+00 -1.347130951E+02  1.590916890E+02  0.000000000E+00  0.00000E+00  9.000E+00
</event>
<event>
     13  10001  1.00000E+00  1.19506E+01 -1.00000E+00  1.92875E-01
      21    -1     0     0   503   504  0.000000000E+00  0.000000000E+00  1.154998098E+02  1.154998098E+02  0.000000000E+00  0.00000E+00  9.000E+00
       2    -1     0     0   502     0  0.000000000E+00  0.000000000E+00 -5.174471361E+02  5.174471361E+02  0.000000000E+00  0.00000E+00  9.000E+00
       6     2     1     2   502     0 -2.961018389E+01 -8.388021886E+01 -3.447722455E+02  3.954295833E+02  1.720000000E+02  0.00000E+00  9.000E+00
      -6     2     1     2     0   504  2.232172044E+01  7.440948519E+01 -1.015574801E+01  1.890030950E+02  1.720000000E+02  0.00000E+00  9.000E+00
      24     2     3     3     0     0  3.304361666E+01 -2.062000125E+01 -2.436907289E+02  2.606431250E+02  8.386061169E+01  0.00000E+00  9.000E+00
     -24     2     4     4     0     0  1.978001733E+01  1.091706014E+02  2.440403239E+01  1.396904558E+02  8.129204975E+01  0.00000E+00  9.000E+00
     -11     1     5     5     0     0  1.457128344E+01 -5.305644314E+01 -1.515321606E+02  1.612119851E+02  2.697398305E-06  0.00000E+00  9.000E+00
      12     1     5     5     0     0  1.847233322E+01  3.243644189E+01 -9.215856836E+01  9.943113989E+01  0.000000000E+00  0.00000E+00  9.000E+00
      13     1     6     6     0     0 -7.287330259E+00  6.501887319E+01 -2.313043659E+01  6.939435244E+01  7.539457465E-07  0.00000E+00  9.000E+00
     -14     1     6     6     0     0  2.706734759E+01  4.415172824E+01  4.753446898E+01  7.029610340E+01  1.168007728E-06  0.00000E+00  9.000E+00
       5     1     3     3   502     0 -6.265380055E+01 -6.326021761E+01 -1.010815166E+02  1.347864583E+02  4.750000000E+00  0.00000E+00  9.000E+00
      -5     1     4     4     0   504  2.541703114E+00 -3.476111624E+01 -3.455978039E+01  4.931263913E+01  4.750000000E+00  0.00000E+00  9.000E+00
       2     1     1     2   503     0  7.288463452E+00  9.470733673E+00 -4.701933284E+01  4.851426756E+01  0.000000000E+00  0.00000E+00  9.000E+00
</event>
<event>
     13  10001  1.00000E+00  1.90933E+01 -1.00000E+00  1.72557E-01
      21    -1     0     0   502   503  0.000000000E+00  0.000000000E+00  1.108007335E+02  1.108007335E+02  0.000000000E+00  0.00000E+00  9.000E+00
      21    -1     0     0   503   511  0.000000000E+00  0.000000000E+00 -5.454276678E+02  5.454276678E+02  0.000000000E+00  0.00000E+00  9.000E+00
       6     2     1     2   502     0  4.741793358E+01 -2.241585546E+01 -2.803731428E+01  1.819918185E+02  1.720000000E+02  0.00000E+00  9.000E+00
      -6     2     1     2     0   504 -3.189162044E+01  3.352841317E+01 -2.042753035E+02  2.710233008E+02  1.720000000E+02  0.00000E+00  9.000E+00
      24     2     3     3     0     0  3.158849653E+01  5.002264023E+01 -3.903100516E+01  1.068830276E+02  8.000290350E+01  0.00000E+00  9.000E+00
     -24     2     4     4     0     0  2.772577205E+01 -1.512005816E+01 -1.615817454E+02  1.828971999E+02  7.965796069E+01  0.00000E+00  9.000E+00
     -11     1     5     5     0     0  5.165876983E+01  1.270391963E+01 -3.633807210E+01  6.442416905E+01  1.168007728E-06  0.00000E+00  9.000E+00
      12     1     5     5     0     0 -2.007027329E+01  3.731872060E+01 -2.692933052E+00  4.245885851E+01  1.275595102E-06  0.00000E+00  9.000E+00
      13     1     6     6     0     0  2.902290551E+01  2.700652450E+01 -1.057979234E+02  1.129817773E+02  1.348699152E-06  0.00000E+00  9.000E+00
     -14     1     6     6     0     0 -1.297133457E+00 -4.212658267E+01 -5.578382200E+01  6.991542261E+01  6.743495762E-07  0.00000E+00  9.000E+00
       5     1     3     3   502     0  1.582943705E+01 -7.243849569E+01  1.099369087E+01  7.510879092E+01  4.750000000E+00  0.00000E+00  9.000E+00
      -5     1     4     4     0   504 -5.961739249E+01  4.864847134E+01 -4.269355817E+01  8.812610090E+01  4.750000000E+00  0.00000E+00  9.000E+00
      21     1     1     2   504   511 -1.552631314E+01 -1.111255771E+01 -2.023143165E+02  2.032132820E+02  0.000000000E+00  0.00000E+00  9.000E+00
</event>
<event>
     13  10001  1.00000E+00  5.71480E+00 -1.00000E+00  2.37479E-01
       2    -1     0     0   502     0  0.000000000E+00  0.000000000E+00  1.242026083E+03  1.242026083E+03  0.000000000E+00  0.00000E+00  9.000E+00
      21    -1     0     0   513   512  0.000000000E+00  0.000000000E+00 -7.283294967E+01  7.283294967E+01  0.000000000E+00  0.00000E+00  9.000E+00
       6     2     1     2   502     0 -1.398361501E+02  1.048128076E+02  2.616098427E+02  3.585576429E+02  1.720000000E+02  0.00000E+00  9.000E+00
      -6     2     1     2     0   512  1.409921655E+02 -1.104094689E+02  9.143383430E+02  9.474532427E+02  1.720000000E+02  0.00000E+00  9.000E+00
      24     2     3     3     0     0 -3.456048640E+01 -6.002209238E-01  5.461093090E+01  1.034772949E+02  8.081094795E+01  0.00000E+00  9.000E+00
     -24     2     4     4     0     0  6.445250940E+01 -5.759682133E+01  2.449834663E+02  2.716529703E+02  7.941610481E+01  0.00000E+00  9.000E+00
     -11     1     5     5     0     0  1.893643042E+01  1.526213204E+01 -1.470465955E+00  2.436561803E+01  7.186624737E-07  0.00000E+00  9.000E+00
      12     1     5     5     0     0 -5.349691682E+01 -1.586235297E+01  5.608139686E+01  7.911167692E+01  6.743495762E-07  0.00000E+00  9.000E+00
      13     1     6     6     0     0  4.017633872E+01  3.863438125E+00  4.228860070E+01  5.845844760E+01  8.259061849E-07  0.00000E+00  9.000E+00
     -14     1     6     6     0     0  2.427617067E+01 -6.146025946E+01  2.026948656E+02  2.131945227E+02  4.672030912E-06  0.00000E+00  9.000E+00
       5     1     3     3   502     0 -1.052756637E+02  1.054130285E+02  2.069989118E+02  2.550803480E+02  4.750000000E+00  0.00000E+00  9.000E+00
      -5     1     4     4     0   512  7.653965609E+01 -5.281264757E+01  6.693548767E+02  6.758002724E+02  4.750000000E+00  0.00000E+00  9.000E+00
       2     1     1     2   513     0 -1.156015363E+00  5.596661309E+00 -6.755051867E+00  8.848147550E+00  2.528810911E-07  0.00000E+00  9.000E+00
</event>
<event>
     13  10001  1.00000E+00  6.16091E+01 -1.00000E+00  1.36908E-01
      21    -1     0     0   503   504  0.000000000E+00  0.000000000E+00  4.477336241E+02  4.477336241E+02  0.000000000E+00  0.00000E+00  9.000E+00
      21    -1     0     0   511   503  0.000000000E+00  0.000000000E+00 -1.576389754E+02  1.576389754E+02  0.000000000E+00  0.00000E+00  9.000E+00
       6     2     1     2   502     0  1.875547983E+01 -1.234267303E+01  2.420125649E+02  2.977552538E+02  1.720000000E+02  0.00000E+00  9.000E+00
      -6     2     1     2     0   504  1.165665045E+01  6.592234207E+01  1.143608053E+02  2.171267521E+02  1.720000000E+02  0.00000E+00  9.000E+00
      24     2     3     3     0     0  1.294751222E+01 -2.958457888E+01  2.584051033E+02  2.728094402E+02  8.129518982E+01  0.00000E+00  9.000E+00
     -24     2     4     4     0     0  3.411369539E+01  3.898728022E+01 -3.695065207E+00  9.388078872E+01  7.820611711E+01  0.00000E+00  9.000E+00
     -11     1     5     5     0     0  1.511826349E+01 -2.552522991E+01  2.346611728E+01  3.782536072E+01  1.390207266E-06  0.00000E+00  9.000E+00
      12     1     5     5     0     0 -2.170751273E+00 -4.059348971E+00  2.349389860E+02  2.349840795E+02  4.672030912E-06  0.00000E+00  9.000E+00
      13     1     6     6     0     0  6.123557214E+00  2.347672103E+01  3.567651869E+01  4.314473744E+01  0.000000000E+00  0.00000E+00  9.000E+00
     -14     1     6     6     0     0  2.799013817E+01  1.551055919E+01 -3.937158389E+01  5.073605128E+01  2.567846683E-06  0.00000E+00  9.000E+00
       5     1     3     3   502     0  5.807967615E+00  1.724190585E+01 -1.639253833E+01  2.494581364E+01  4.750000000E+00  0.00000E+00  9.000E+00
      -5     1     4     4     0   504 -2.245704494E+01  2.693506185E+01  1.180558705E+02  1.232459634E+02  4.750000000E+00  0.00000E+00  9.000E+00
      21     1     1     2   511   502 -3.041213028E+01 -5.357966904E+01 -6.627872155E+01  9.049059362E+01  1.651812370E-06  0.00000E+00  9.000E+00
</event>
<event>
     13  10001  1.00000E+00  4.63561E+01 -1.00000E+00  1.44101E-01
      21    -1     0     0   503   504  0.000000000E+00  0.000000000E+00  1.543551712E+02  1.543551712E+02  0.000000000E+00  0.00000E+00  9.000E+00
      21    -1     0     0   502   512  0.000000000E+00  0.000000000E+00 -5.767811570E+02  5.767811570E+02  0.000000000E+00  0.00000E+00  9.000E+00
       6     2     1     2   502     0  1.569667641E+01  5.265066721E+01  6.113136416E+01  1.906292792E+02  1.720000000E+02  0.00000E+00  9.000E+00
      -6     2     1     2     0   504  1.207214574E+01 -8.976912020E+01 -3.727406650E+02  4.203853411E+02  1.720000000E+02  0.00000E+00  9.000E+00
      24     2     3     3     0     0  2.955043482E+01  9.935475805E+01  4.289434121E+01  1.383956671E+02  8.104838081E+01  0.00000E+00  9.000E+00
     -24     2     4     4     0     0  2.923806960E+01 -8.003172700E+01 -1.207142971E+02  1.675428241E+02  7.898553249E+01  0.00000E+00  9.000E+00
     -11     1     5     5     0     0 -2.417357352E+01  3.415330952E+01  3.308863159E+01  5.334480058E+01  1.784161275E-06  0.00000E+00  9.000E+00
      12     1     5     5     0     0  5.372400834E+01  6.520144853E+01  9.805709614E+00  8.505086657E+01  9.610960183E-07  0.00000E+00  9.000E+00
      13     1     6     6     0     0 -1.033816633E+01 -1.020654076E+01  7.446102706E+00  1.632469304E+01  1.685873940E-07  0.00000E+00  9.000E+00
     -14     1     6     6     0     0  3.957623594E+01 -6.982518624E+01 -1.281603998E+02  1.512181310E+02  1.907348633E-06  0.00000E+00  9.000E+00
       5     1     3     3   502     0 -1.385375842E+01 -4.670409084E+01  1.823702296E+01  5.223361207E+01  4.750000000E+00  0.00000E+00  9.000E+00
      -5     1     4     4     0   504 -1.716592387E+01 -9.737393205E+00 -2.520263679E+02  2.528425170E+02  4.750000000E+00  0.00000E+00  9.000E+00
      21     1     1     2   503   512 -2.776882214E+01  3.711845299E+01 -1.108166850E+02  1.201217079E+02  1.348699152E-06  0.00000E+00  9.000E+00
</event>
<event>
     13  10001  1.00000E+00  7.45416E+00 -1.00000E+00  2.19115E-01
      21    -1     0     0   503   504  0.000000000E+00  0.000000000E+00  2.220194690E+02  2.220194690E+02  0.000000000E+00  0.00000E+00  9.000E+00
      21    -1     0     0   502   511  0.000000000E+00  0.000000000E+00 -2.777010831E+02  2.777010831E+02  0.000000000E+00  0.00000E+00  9.000E+00
       6     2     1     2   502     0  5.466926484E+01 -3.998718756E+01 -1.603495117E+02  2.447114006E+02  1.720000000E+02  0.00000E+00  9.000E+00
      -6     2     1     2     0   504 -6.037825748E+01  3.519427988E+01  1.312739685E+02  2.273785965E+02  1.720000000E+02  0.00000E+00  9.000E+00
      24     2     3     3     0     0 -1.610728164E+01 -6.627203639E+01 -6.887309968E+01  1.260071072E+02  8.051620884E+01  0.00000E+00  9.000E+00
     -24     2     4     4     0     0 -2.874814931E+01 -3.406999739E+01  1.192868247E+02  1.501499880E+02  7.955156530E+01  0.00000E+00  9.000E+00
     -11     1     5     5     0     0 -6.409774418E+00 -5.843850544E+01 -8.639690981E+01  1.045015318E+02  2.132480600E-06  0.00000E+00  9.000E+00
      12     1     5     5     0     0 -9.697507223E+00 -7.833530949E+00  1.752381012E+01  2.150557543E+01  4.129530925E-07  0.00000E+00  9.000E+00
      13     1     6     6     0     0 -4.049315855E+00 -7.572449003E+00  1.130713656E+02  1.133969694E+02  0.000000000E+00  0.00000E+00  9.000E+00
     -14     1     6     6     0     0 -2.469883345E+01 -2.649754839E+01  6.215459037E+00  3.675301859E+01  6.419616708E-07  0.00000E+00  9.000E+00
       5     1     3     3   502     0  7.077654648E+01  2.628484883E+01 -9.147641200E+01  1.187042934E+02  4.750000000E+00  0.00000E+00  9.000E+00
      -5     1     4     4     0   504 -3.163010817E+01  6.926427727E+01  1.198714387E+01  7.722860848E+01  4.750000000E+00  0.00000E+00  9.000E+00
      21     1     1     2   503   511  5.708992643E+00  4.792907680E+00 -2.660607095E+01  2.763055506E+01  3.371747881E-07  0.00000E+00  9.000E+00
</event>
<event>
     13  10001  1.00000E+00  1.66234E+01 -1.00000E+00  1.78087E-01
       1    -1     0     0   513     0  0.000000000E+00  0.000000000E+00  5.694762006E+02  5.694762006E+02  0.000000000E+00  0.00000E+00  9.000E+00
      -1    -1     0     0     0   512  0.000000000E+00  0.000000000E+00 -9.573384151E+01  9.573384151E+01  0.000000000E+00  0.00000E+00  9.000E+00
       6     2     1     2   502     0  3.577065673E+00 -1.260632890E+02  1.554808355E+02  2.639375654E+02  1.720000000E+02  0.00000E+00  9.000E+00
      -6     2     1     2     0   512  2.662443948E+00  1.414712721E+02  2.687458752E+02  3.490409071E+02  1.720000000E+02  0.00000E+00  9.000E+00
      24     2     3     3     0     0  1.322197005E+01 -7.238063807E+01  1.736349667E+02  2.062575328E+02  8.354215040E+01  0.00000E+00  9.000E+00
     -24     2     4     4     0     0  4.208640018E+01  4.373760158E+01  6.508206873E+01  1.196773808E+02  8.001722892E+01  0.00000E+00  9.000E+00
     -11     1     5     5     0     0  3.371061645E+01 -2.932158929E+01  1.424215039E+02  1.492650194E+02  2.697398305E-06  0.00000E+00  9.000E+00
      12     1     5     5     0     0 -2.048864641E+01 -4.305904878E+01  3.121346286E+01  5.699251334E+01  1.168007728E-06  0.00000E+00  9.000E+00
      13     1     6     6     0     0 -1.406313532E+01  2.545094023E+01 -3.371173688E+00  2.927263134E+01  6.265579474E-07  0.00000E+00  9.000E+00
     -14     1     6     6     0     0  5.614953550E+01  1.828666135E+01  6.845324242E+01  9.040474942E+01  1.651812370E-06  0.00000E+00  9.000E+00
       5     1     3     3   502     0 -9.644904373E+00 -5.368265092E+01 -1.815413118E+01  5.768003268E+01  4.750000000E+00  0.00000E+00  9.000E+00
      -5     1     4     4     0   512 -3.942395623E+01  9.773367048E+01  2.036638065E+02  2.293635264E+02  4.750000000E+00  0.00000E+00  9.000E+00
      21     1     1     2   513   502 -6.239509620E+00 -1.540798307E+01  4.951564838E+01  5.223156954E+01  0.000000000E+00  0.00000E+00  9.000E+00
</event>
<event>
     13  10001  1.00000E+00  1.04867E+01 -1.00000E+00  1.99462E-01
      21    -1     0     0   502   503  0.000000000E+00  0.000000000E+00  2.902547202E+02  2.902547202E+02  0.000000000E+00  0.00000E+00  9.000E+00
      21    -1     0     0   503   511  0.000000000E+00  0.000000000E+00 -3.276187975E+02  3.276187975E+02  0.000000000E+00  0.00000E+00  9.000E+00
       6     2     1     2   502     0 -1.620357608E+02 -4.420173942E+00 -1.988334898E+02  3.088590008E+02  1.720000000E+02  0.00000E+00  9.000E+00
      -6     2     1     2     0   504  1.690886172E+02  1.218081403E+01  1.701325646E+02  2.954122919E+02  1.720000000E+02  0.00000E+00  9.000E+00
      24     2     3     3     0     0 -1.775607353E+02 -1.798908655E+00 -1.207506768E+02  2.290631109E+02  7.973789578E+01  0.00000E+00  9.000E+00
     -24     2     4     4     0     0  1.006338180E+02  1.331383117E+01  1.842974783E+02  2.253369714E+02  8.066453225E+01  0.00000E+00  9.000E+00
     -11     1     5     5     0     0 -7.267148888E+01 -3.394212718E+01 -7.628088453E+01  1.106886925E+02  2.132480600E-06  0.00000E+00  9.000E+00
      12     1     5     5     0     0 -1.048892464E+02  3.214321853E+01 -4.446979231E+01  1.183744185E+02  2.132480600E-06  0.00000E+00  9.000E+00
      13     1     6     6     0     0  1.960554742E+01  2.700156768E+01  1.387819144E+01  3.613953991E+01  8.259061849E-07  0.00000E+00  9.000E+00
     -14     1     6     6     0     0  8.102827057E+01 -1.368773652E+01  1.704192868E+02  1.891974315E+02  0.000000000E+00  0.00000E+00  9.000E+00
       5     1     3     3   502     0  1.552497451E+01 -2.621265288E+00 -7.808281296E+01  7.979588990E+01  4.750000000E+00  0.00000E+00  9.000E+00
      -5     1     4     4     0   504  6.845479925E+01 -1.133017140E+00 -1.416491371E+01  7.007532054E+01  4.750000000E+00  0.00000E+00  9.000E+00
      21     1     1     2   504   511 -7.052856425E+00 -7.760640086E+00 -8.663152116E+00  1.360222492E+01  2.665600750E-07  0.00000E+00  9.000E+00
</event>
<event>
     13  10001  1.00000E+00  3.43377E+01 -1.00000E+00  1.52584E-01
      21    -1     0     0   503   504  0.000000000E+00  0.000000000E+00  3.223300182E+02  3.223300182E+02  0.000000000E+00  0.00000E+00  9.000E+00
      21    -1     0     0   502   512  0.000000000E+00  0.000000000E+00 -3.232853888E+02  3.232853888E+02  0.000000000E+00  0.00000E+00  9.000E+00
       6     2     1     2   502     0  5.093764411E+01 -4.535542740E+01  2.542026884E+02  3.144117765E+02  1.720000000E+02  0.00000E+00  9.000E+00
      -6     2     1     2     0   504 -3.843558695E+01  1.337457608E+01 -2.168976193E+02  2.797941223E+02  1.720000000E+02  0.00000E+00  9.000E+00
      24     2     3     3     0     0 -1.830267104E+01  2.407518114E+01  1.410960223E+02  1.646435854E+02  7.927686030E+01  0.00000E+00  9.000E+00
     -24     2     4     4     0     0 -7.642608241E+01  3.772811223E+01 -2.011017693E+02  2.317478546E+02  7.746476588E+01  0.00000E+00  9.000E+00
     -11     1     5     5     0     0 -4.141061548E+00  1.537281722E+01  1.463483098E+02  1.472117511E+02  1.907348633E-06  0.00000E+00  9.000E+00
      12     1     5     5     0     0 -1.416160949E+01  8.702363920E+00 -5.252287462E+00  1.743183424E+01  4.616955931E-07  0.00000E+00  9.000E+00
      13     1     6     6     0     0 -8.342209225E+01  9.139808928E+00 -1.292868585E+02  1.541358926E+02  2.697398305E-06  0.00000E+00  9.000E+00
     -14     1     6     6     0     0  6.996009832E+00  2.858830330E+01 -7.181491076E+01  7.761196201E+01  1.907348633E-06  0.00000E+00  9.000E+00
       5     1     3     3   502     0  6.924031516E+01 -6.943060854E+01  1.131066661E+02  1.497681911E+02  4.750000000E+00  0.00000E+00  9.000E+00
      -5     1     4     4     0   504  3.799049546E+01 -2.435353616E+01 -1.579585000E+01  4.804626776E+01  4.750000000E+00  0.00000E+00  9.000E+00
      21     1     1     2   503   512 -1.250205716E+01  3.198085132E+01 -3.826043967E+01  5.140950815E+01  8.259061849E-07  0.00000E+00  9.000E+00
</event>
<event>
     13  10001  1.00000E+00  5.13973E+01 -1.00000E+00  1.41403E-01
      21    -1     0     0   502   503  0.000000000E+00  0.000000000E+00  1.479523659E+03  1.479523659E+03  0.000000000E+00  0.00000E+00  9.000E+00
      21    -1     0     0   511   504  0.000000000E+00  0.000000000E+00 -1.672232172E+02  1.672232172E+02  0.000000000E+00  0.00000E+00  9.000E+00
       6     2     1     2   502     0 -1.244843590E+02 -2.155600892E+01  5.662553103E+02  6.051364256E+02  1.720000000E+02  0.00000E+00  9.000E+00
      -6     2     1     2     0   504  1.074486435E+02  7.004796732E+01  8.759828091E+02  9.018768267E+02  1.720000000E+02  0.00000E+00  9.000E+00
      24     2     3     3     0     0 -5.063609327E+01  4.238699543E+01  1.908976363E+02  2.172469825E+02  7.996044353E+01  0.00000E+00  9.000E+00
     -24     2     4     4     0     0  1.045264202E+02 -1.177322855E+01  5.235530848E+02  5.400308366E+02  8.038090851E+01  0.00000E+00  9.000E+00
     -11     1     5     5     0     0 -5.882525907E+01  9.735305793E+00  7.101181685E+01  9.272467534E+01  2.336015456E-06  0.00000E+00  9.000E+00
      12     1     5     5     0     0  8.189165799E+00  3.265168964E+01  1.198858194E+02  1.245223071E+02  1.348699152E-06  0.00000E+00  9.000E+00
      13     1     6     6     0     0  6.279194271E-01  3.183155362E-01  1.997700873E+02  1.997713278E+02  0.000000000E+00  0.00000E+00  9.000E+00
     -14     1     6     6     0     0  1.038985008E+02 -1.209154409E+01  3.237829974E+02  3.402595088E+02  0.000000000E+00  0.00000E+00  9.000E+00
       5     1     3     3   502     0 -7.384826572E+01 -6.394300435E+01  3.753576740E+02  3.878894431E+02  4.750000000E+00  0.00000E+00  9.000E+00
      -5     1     4     4     0   504  2.922223317E+00  8.182119587E+01  3.524297243E+02  3.618459901E+02  4.750000000E+00  0.00000E+00  9.000E+00
      21     1     1     2   511   503  1.703571547E+01 -4.849195840E+01 -1.299376775E+02  1.397336239E+02  5.394796609E-06  0.00000E+00  9.000E+00
</event>
<event>
     13  10001  1.00000E+00  1.71248E+02 -1.00000E+00  1.16177E-01
       2    -1     0     0   502     0  0.000000000E+00  0.000000000E+00  1.199040291E+03  1.199040291E+03  0.000000000E+00  0.00000E+00  9.000E+00
      21    -1     0     0   503   504  0.000000000E+00  0.000000000E+00 -2.436051470E+02  2.436051470E+02  0.000000000E+00  0.00000E+00  9.000E+00
       6     2     1     2   502     0 -2.686675177E+02  5.086156434E+01 -1.511062060E+01  3.233905760E+02  1.720000000E+02  0.00000E+00  9.000E+00
      -6     2     1     2     0   504  9.832275047E+01 -3.329747405E+01  8.642023741E+01  2.186973765E+02  1.720000000E+02  0.00000E+00  9.000E+00
      24     2     3     3     0     0 -1.769052138E+02  9.990956961E+01 -4.305171774E+00  2.186750210E+02  8.076418471E+01  0.00000E+00  9.000E+00
     -24     2     4     4     0     0  7.442871424E+01 -5.673222174E+01  1.195918459E+02  1.713367337E+02  7.934663335E+01  0.00000E+00  9.000E+00
     -11     1     5     5     0     0 -1.450022890E+01  1.138619331E+01  2.535344332E+01  3.134803223E+01  1.066240300E-06  0.00000E+00  9.000E+00
      12     1     5     5     0     0 -1.624049849E+02  8.852337629E+01 -2.965861509E+01  1.873269887E+02  1.617033478E-06  0.00000E+00  9.000E+00
      13     1     6     6     0     0 -1.182310241E+00 -4.631514796E+01  4.729112213E+01  6.620378404E+01  1.348699152E-06  0.00000E+00  9.000E+00
     -14     1     6     6     0     0  7.561102448E+01 -1.041707378E+01  7.230072382E+01  1.051329497E+02  1.651812370E-06  0.00000E+00  9.000E+00
       5     1     3     3   502     0 -9.176230393E+01 -4.904800527E+01 -1.080544882E+01  1.047155550E+02  4.750000000E+00  0.00000E+00  9.000E+00
      -5     1     4     4     0   504  2.389403624E+01  2.343474769E+01 -3.317160853E+01  4.736064273E+01  4.750000000E+00  0.00000E+00  9.000E+00
       2     1     1     2   503     0  1.703447672E+02 -1.756409029E+01  8.841255272E+02  9.005574855E+02  0.000000000E+00  0.00000E+00  9.000E+00
</event>
<event>
     13  10001  1.00000E+00  4.58875E+01 -1.00000E+00  1.44373E-01
       2    -1     0     0   503     0  0.000000000E+00  0.000000000E+00  5.720143623E+02  5.720143623E+02  0.000000000E+00  0.00000E+00  9.000E+00
      21    -1     0     0   502   503  0.000000000E+00  0.000000000E+00 -2.206137051E+02  2.206137051E+02  0.000000000E+00  0.00000E+00  9.000E+00
       6     2     1     2   502     0  4.984099743E+01  5.730240293E+01  2.995799412E+02  3.536945456E+02  1.720000000E+02  0.00000E+00  9.000E+00
      -6     2     1     2     0   504 -7.024620918E+01 -1.620147271E+01 -1.453786799E+02  2.364655962E+02  1.720000000E+02  0.00000E+00  9.000E+00
      24     2     3     3     0     0  1.339088730E+01 -4.055335993E+01  1.065882770E+02  1.342117312E+02  6.948263911E+01  0.00000E+00  9.000E+00
     -24     2     4     4     0     0 -5.567106912E+01  2.696316230E+01 -1.649928697E+02  1.866368960E+02  6.151750845E+01  0.00000E+00  9.000E+00
     -11     1     5     5     0     0 -2.661987329E+01 -2.973516428E+01  5.699669940E+01  6.958032331E+01  6.743495762E-07  0.00000E+00  9.000E+00
      12     1     5     5     0     0  4.001076058E+01 -1.081819565E+01  4.959157762E+01  6.463140793E+01  1.507891493E-06  0.00000E+00  9.000E+00
      13     1     6     6     0     0 -2.382156729E+01 -1.949414611E+01 -6.327281213E+01  7.036289900E+01  1.651812370E-06  0.00000E+00  9.000E+00
     -14     1     6     6     0     0 -3.184950183E+01  4.645730841E+01 -1.017200576E+02  1.162739970E+02  1.348699152E-06  0.00000E+00  9.000E+00
       5     1     3     3   502     0  3.645011013E+01  9.785576286E+01  1.929916642E+02  2.194828144E+02  4.750000000E+00  0.00000E+00  9.000E+00
      -5     1     4     4     0   504 -1.457514005E+01 -4.316463501E+01  1.961418978E+01  4.982870020E+01  4.750000000E+00  0.00000E+00  9.000E+00
       2     1     1     2   504     0  2.040521175E+01 -4.110093023E+01  1.971993959E+02  2.024679256E+02  0.000000000E+00  0.00000E+00  9.000E+00
</event>
<event>
     13  10001  1.00000E+00  1.04141E+02 -1.00000E+00  1.25397E-01
      21    -1     0     0   503   504  0.000000000E+00  0.000000000E+00  6.866538796E+02  6.866538796E+02  0.000000000E+00  0.00000E+00  9.000E+00
      21    -1     0     0   511   503  0.000000000E+00  0.000000000E+00 -1.331130135E+03  1.331130135E+03  0.000000000E+00  0.00000E+00  9.000E+00
       6     2     1     2   502     0  1.792222488E+01  1.065263369E+02 -1.442953773E+02  2.491469897E+02  1.720000000E+02  0.00000E+00  9.000E+00
      -6     2     1     2     0   504 -1.038347123E+02 -1.653850322E+02  6.049837254E+02  6.585766200E+02  1.720000000E+02  0.00000E+00  9.000E+00
      24     2     3     3     0     0 -3.581070443E+01  1.932138401E+01 -2.839275770E+01  9.439586302E+01  8.030384694E+01  0.00000E+00  9.000E+00
     -24     2     4     4     0     0  1.693722225E+00 -1.111556724E+02  3.881289168E+02  4.113406102E+02  7.873112103E+01  0.00000E+00  9.000E+00
     -11     1     5     5     0     0 -3.038436933E+01  4.997408207E+01 -1.420802842E+01  6.018709870E+01  1.815741803E-06  0.00000E+00  9.000E+00
      12     1     5     5     0     0 -5.426335102E+00 -3.065269807E+01 -1.418472928E+01  3.420876432E+01  1.338120956E-06  0.00000E+00  9.000E+00
      13     1     6     6     0     0  3.718814293E+00 -3.032496044E+01  2.454464163E+02  2.473406074E+02  2.697398305E-06  0.00000E+00  9.000E+00
     -14     1     6     6     0     0 -2.025092069E+00 -8.083071193E+01  1.426825005E+02  1.640000028E+02  4.264961200E-06  0.00000E+00  9.000E+00
       5     1     3     3   502     0  5.373292930E+01  8.720495287E+01 -1.159026196E+02  1.547511267E+02  4.750000000E+00  0.00000E+00  9.000E+00
      -5     1     4     4     0   504 -1.055284346E+02 -5.422935985E+01  2.168548087E+02  2.472360097E+02  4.750000000E+00  0.00000E+00  9.000E+00
      21     1     1     2   511   502  8.591248747E+01  5.885869533E+01 -1.105164604E+03  1.110060405E+03  1.525878906E-05  0.00000E+00  9.000E+00
</event>
<event>
     13  10001  1.00000E+00  9.63725E+01 -1.00000E+00  1.26971E-01
      21    -1     0     0   502   512  0.000000000E+00  0.000000000E+00  5.579943365E+02  5.579943365E+02  0.000000000E+00  0.00000E+00  9.000E+00
      21    -1     0     0   503   504  0.000000000E+00  0.000000000E+00 -2.406894512E+02  2.406894512E+02  0.000000000E+00  0.00000E+00  9.000E+00
       6     2     1     2   502     0  2.320576736E+02  4.717073009E+01 -5.015650304E+00  2.927200000E+02  1.720000000E+02  0.00000E+00  9.000E+00
      -6     2     1     2     0   504 -1.977744435E+02  4.289766086E+01  1.411835989E+02  3.007852198E+02  1.720000000E+02  0.00000E+00  9.000E+00
      24     2     3     3     0     0  1.855651198E+02  5.551780266E+01  5.426625942E+01  2.167717380E+02  8.079925364E+01  0.00000E+00  9.000E+00
     -24     2     4     4     0     0 -1.757695930E+02  3.630481240E+01  1.727390611E+02  2.614661559E+02  7.945299366E+01  0.00000E+00  9.000E+00
     -11     1     5     5     0     0  1.275465356E+02 -4.475337006E-01  4.661057840E+01  1.357971467E+02  2.023048729E-06  0.00000E+00  9.000E+00
      12     1     5     5     0     0  5.801858418E+01  5.596533636E+01  7.655681021E+00  8.097459130E+01  1.099055345E-06  0.00000E+00  9.000E+00
      13     1     6     6     0     0 -1.009548063E+02  3.686384318E+01  5.192241421E+01  1.193597627E+02  9.536743164E-07  0.00000E+00  9.000E+00
     -14     1     6     6     0     0 -7.481478678E+01 -5.590307776E-01  1.208166468E+02  1.421063932E+02  2.697398305E-06  0.00000E+00  9.000E+00
       5     1     3     3   502     0  4.649255380E+01 -8.347072568E+00 -5.928190973E+01  7.594826200E+01  4.750000000E+00  0.00000E+00  9.000E+00
      -5     1     4     4     0   504 -2.200485049E+01  6.592848458E+00 -3.155546213E+01  3.931906390E+01  4.750000000E+00  0.00000E+00  9.000E+00
      21     1     1     2   503   512 -3.428323007E+01 -9.006839095E+01  1.811369366E+02  2.051785679E+02  0.000000000E+00  0.00000E+00  9.000E+00
</event>
<event>
     13  10001  1.00000E+00  1.50510E+02 -1.00000E+00  1.18435E-01
      21    -1     0     0   503   504  0.000000000E+00  0.000000000E+00  4.447809392E+02  4.447809392E+02  0.000000000E+00  0.00000E+00  9.000E+00
      21    -1     0     0   502   511  0.000000000E+00  0.000000000E+00 -2.745782813E+02  2.745782813E+02  0.000000000E+00  0.00000E+00  9.000E+00
       6     2     1     2   502     0 -3.636951649E+01  5.513504562E+01  2.205303964E+02  2.873678317E+02  1.720000000E+02  0.00000E+00  9.000E+00
      -6     2     1     2     0   504  9.247017346E+01 -1.947985748E+02 -9.278484798E+00  2.759842532E+02  1.720000000E+02  0.00000E+00  9.000E+00
      24     2     3     3     0     0 -8.435720379E+01  3.452676063E+01  1.247847724E+02  1.782014149E+02  8.874835115E+01  0.00000E+00  9.000E+00
     -24     2     4     4     0     0  5.967715279E+01 -5.293177445E+01 -5.148996217E+01  1.243071535E+02  8.023663063E+01  0.00000E+00  9.000E+00
     -11     1     5     5     0     0 -6.180091830E+00  3.353526328E+00  8.468007547E+01  8.497149437E+01  0.000000000E+00  0.00000E+00  9.000E+00
      12     1     5     5     0     0 -7.817711196E+01  3.117323430E+01  4.010469691E+01  9.322992055E+01  2.023048729E-06  0.00000E+00  9.000E+00
      13     1     6     6     0     0  8.303775599E+00 -4.290987512E+01 -5.683096512E+01  7.169357480E+01  9.536743164E-07  0.00000E+00  9.000E+00
     -14     1     6     6     0     0  5.137337719E+01 -1.002189933E+01  5.341002950E+00  5.261357869E+01  7.127678837E-07  0.00000E+00  9.000E+00
       5     1     3     3   502     0  4.798768730E+01  2.060828499E+01  9.574562400E+01  1.091664168E+02  4.750000000E+00  0.00000E+00  9.000E+00
      -5     1     4     4     0   504  3.279302068E+01 -1.418668004E+02  4.221147737E+01  1.516770997E+02  4.750000000E+00  0.00000E+00  9.000E+00
      21     1     1     2   503   511 -5.610065698E+01  1.396635292E+02 -4.104925372E+01  1.560071355E+02  1.846782373E-06  0.00000E+00  9.000E+00
</event>
<event>
     13  10001  1.00000E+00  3.22683E+01 -1.00000E+00  1.54471E-01
      21    -1     0     0   512   504  0.000000000E+00  0.000000000E+00  6.127665742E+02  6.127665742E+02  0.000000000E+00  0.00000E+00  9.000E+00
      21    -1     0     0   502   503  0.000000000E+00  0.000000000E+00 -1.579284179E+02  1.579284179E+02  0.000000000E+00  0.00000E+00  9.000E+00
       6     2     1     2   502     0 -6.136515492E+01 -1.309843799E+02  2.613001494E+02  3.446510671E+02  1.720000000E+02  0.00000E+00  9.000E+00
      -6     2     1     2     0   504  9.232029659E+01  1.400962011E+02  1.084553266E+01  2.405236128E+02  1.720000000E+02  0.00000E+00  9.000E+00
      24     2     3     3     0     0 -1.164923498E+01 -1.041050512E+02  2.548371272E+02  2.875677582E+02  8.233885958E+01  0.00000E+00  9.000E+00
     -24     2     4     4     0     0  9.307450930E+01  1.600298046E+02 -2.120725828E+01  2.024728402E+02  7.920290762E+01  0.00000E+00  9.000E+00
     -11     1     5     5     0     0  1.500321682E+01  8.393528188E+00  4.145226218E+01  4.487580495E+01  1.907348633E-06  0.00000E+00  9.000E+00
      12     1     5     5     0     0 -2.665245180E+01 -1.124985794E+02  2.133848650E+02  2.426919532E+02  3.814697266E-06  0.00000E+00  9.000E+00
      13     1     6     6     0     0  7.422988440E+01  9.878566853E+01 -4.860666172E+01  1.327828739E+02  3.090257978E-06  0.00000E+00  9.000E+00
     -14     1     6     6     0     0  1.884462490E+01  6.124413608E+01  2.739940344E+01  6.968996628E+01  1.215700987E-06  0.00000E+00  9.000E+00
       5     1     3     3   502     0 -4.971591994E+01 -2.687932873E+01  6.463022215E+00  5.708330898E+01  4.750000000E+00  0.00000E+00  9.000E+00
      -5     1     4     4     0   504 -7.542127084E-01 -1.993360351E+01  3.205279094E+01  3.805077257E+01  4.750000000E+00  0.00000E+00  9.000E+00
      21     1     1     2   512   503 -3.095514168E+01 -9.111821168E+00  1.826924743E+02  1.855203122E+02  0.000000000E+00  0.00000E+00  9.000E+00
</event>
<event>
     13  10001  1.00000E+00  5.46047E+01 -1.00000E+00  1.39868E-01
      21    -1     0     0   502   511  0.000000000E+00  0.000000000E+00  2.141659735E+02  2.141659735E+02  0.000000000E+00  0.00000E+00  9.000E+00
      21    -1     0     0   503   504  0.000000000E+00  0.000000000E+00 -3.247982967E+02  3.247982967E+02  0.000000000E+00  0.00000E+00  9.000E+00
       6     2     1     2   502     0 -4.383259599E+01  1.076128617E+02  2.853059842E+01  2.095228377E+02  1.720000000E+02  0.00000E+00  9.000E+00
      -6     2     1     2     0   504  8.650887451E+01 -7.354802970E+01 -1.696143509E+02  2.669196997E+02  1.720000000E+02  0.00000E+00  9.000E+00
      24     2     3     3     0     0  1.266352224E+01  9.112580269E+00 -2.719099903E+01  8.294647444E+01  7.679429197E+01  0.00000E+00  9.000E+00
     -24     2     4     4     0     0  1.142463254E+02 -3.485962116E+01 -1.644356831E+02  2.187996390E+02  8.103562253E+01  0.00000E+00  9.000E+00
     -11     1     5     5     0     0  2.092684926E+00  3.602750269E+01 -3.769162567E+01  5.218255385E+01  4.768371582E-07  0.00000E+00  9.000E+00
      12     1     5     5     0     0  1.057083732E+01 -2.691492242E+01  1.050062664E+01  3.076392059E+01  1.052827938E-06  0.00000E+00  9.000E+00
      13     1     6     6     0     0  9.371983163E+00 -1.121371580E+01 -8.208712904E+01  8.337792420E+01  1.907348633E-06  0.00000E+00  9.000E+00
     -14     1     6     6     0     0  1.048743422E+02 -2.364590537E+01 -8.234855406E+01  1.354217148E+02  2.132480600E-06  0.00000E+00  9.000E+00
       5     1     3     3   502     0 -5.649611823E+01  9.850028141E+01  5.572159745E+01  1.265763633E+02  4.750000000E+00  0.00000E+00  9.000E+00
      -5     1     4     4     0   504 -2.773745086E+01 -3.868840854E+01 -5.178667796E+00  4.812006063E+01  4.750000000E+00  0.00000E+00  9.000E+00
      21     1     1     2   503   511 -4.267627852E+01 -3.406483198E+01  3.045142932E+01  6.252173282E+01  4.768371582E-07  0.00000E+00  9.000E+00
</event>
<event>
     13  10001  1.00000E+00  1.36717E+02 -1.00000E+00  1.20175E-01
      21    -1     0     0   502   503  0.000000000E+00  0.000000000E+00  2.629830392E+02  2.629830392E+02  0.000000000E+00  0.00000E+00  9.000E+00
       1    -1     0     0   503     0  0.000000000E+00  0.000000000E+00 -9.550529909E+02  9.550529909E+02  0.000000000E+00  0.00000E+00  9.000E+00
       6     2     1     2   502     0  3.434965233E+01 -9.689733267E+00 -5.952157212E+02  6.205961201E+02  1.720000000E+02  0.00000E+00  9.000E+00
      -6     2     1     2     0   504  8.604699110E+00 -1.201040228E+02  1.877753240E+02  2.816781664E+02  1.720000000E+02  0.00000E+00  9.000E+00
      24     2     3     3     0     0  4.349354157E+01  5.183704606E+01 -4.641465244E+02  4.754380954E+02  7.765706000E+01  0.00000E+00  9.000E+00
     -24     2     4     4     0     0  5.460894387E+01 -3.071973462E+01  5.823119644E+01  1.176349252E+02  8.075434688E+01  0.00000E+00  9.000E+00
     -11     1     5     5     0     0  5.467052609E+01  6.130354785E+00 -2.179777528E+02  2.248126963E+02  4.672030912E-06  0.00000E+00  9.000E+00
      12     1     5     5     0     0 -1.117698451E+01  4.570669127E+01 -2.461687715E+02  2.506253991E+02  3.814697266E-06  0.00000E+00  9.000E+00
      13     1     6     6     0     0  1.164226779E+01  2.667881407E+01  2.598098378E+01  3.901683019E+01  5.840038640E-07  0.00000E+00  9.000E+00
     -14     1     6     6     0     0  4.296667609E+01 -5.739854870E+01  3.225021266E+01  7.861809501E+01  1.168007728E-06  0.00000E+00  9.000E+00
       5     1     3     3   502     0 -9.143889242E+00 -6.152677932E+01 -1.310691968E+02  1.451580247E+02  4.750000000E+00  0.00000E+00  9.000E+00
      -5     1     4     4     0   504 -4.600424476E+01 -8.938428821E+01  1.295441275E+02  1.640432412E+02  4.750000000E+00  0.00000E+00  9.000E+00
       1     1     1     2   504     0 -4.295435144E+01  1.297937561E+02 -2.846295545E+02  3.157617436E+02  5.394796609E-06  0.00000E+00  9.000E+00
</event>
<event>
     13  10001  1.00000E+00  1.85016E+01 -1.00000E+00  1.73782E-01
      21    -1     0     0   503   511  0.000000000E+00  0.000000000E+00  6.607337901E+01  6.607337901E+01  0.000000000E+00  0.00000E+00  9.000E+00
      21    -1     0     0   502   503  0.000000000E+00  0.000000000E+00 -7.747668926E+02  7.747668926E+02  0.000000000E+00  0.00000E+00  9.000E+00
       6     2     1     2   502     0  3.385284191E+01 -8.651286006E+01 -1.817344318E+02  2.669117711E+02  1.720000000E+02  0.00000E+00  9.000E+00
      -6     2     1     2     0   504 -2.170281356E+01  1.004659136E+02 -5.130274292E+02  5.507681499E+02  1.720000000E+02  0.00000E+00  9.000E+00
      24     2     3     3     0     0 -8.525511692E-01 -2.197834332E+01 -1.739668570E+02  1.930736652E+02  8.080345579E+01  0.00000E+00  9.000E+00
     -24     2     4     4     0     0  3.167409674E+01  9.483948492E+01 -2.051371658E+02  2.381985928E+02  6.826079789E+01  0.00000E+00  9.000E+00
     -11     1     5     5     0     0  1.427784489E+01  2.644385296E+01 -4.161111852E+01  5.132854371E+01  4.768371582E-07  0.00000E+00  9.000E+00
      12     1     5     5     0     0 -1.513039606E+01 -4.842219629E+01 -1.323557384E+02  1.417451215E+02  3.303624740E-06  0.00000E+00  9.000E+00
      13     1     6     6     0     0  2.076877533E+01  1.030609541E+02 -1.635477990E+02  1.944242394E+02  1.907348633E-06  0.00000E+00  9.000E+00
     -14     1     6     6     0     0  1.090532141E+01 -8.221469208E+00 -4.158936673E+01  4.377435340E+01  1.261592536E-06  0.00000E+00  9.000E+00
       5     1     3     3   502     0  3.470539308E+01 -6.453451673E+01 -7.767574806E+00  7.383810586E+01  4.750000000E+00  0.00000E+00  9.000E+00
      -5     1     4     4     0   504 -5.337691030E+01  5.626428673E+00 -3.078902634E+02  3.125695571E+02  4.750000000E+00  0.00000E+00  9.000E+00
      21     1     1     2   504   511 -1.215002835E+01 -1.395305354E+01 -1.393165261E+01  2.316035053E+01  2.384185791E-07  0.00000E+00  9.000E+00
</event>
<event>
     13  10001  1.00000E+00  1.75100E+01 -1.00000E+00  1.75970E-01
       1    -1     0     0   502     0  0.000000000E+00  0.000000000E+00  1.049245885E+03  1.049245885E+03  0.000000000E+00  0.00000E+00  9.000E+00
      -1    -1     0     0     0   513  0.000000000E+00  0.000000000E+00 -6.088380451E+01  6.088380451E+01  0.000000000E+00  0.00000E+00  9.000E+00
       6     2     1     2   502     0 -1.477804994E+02 -3.773883334E+01  2.781479729E+02  3.608512025E+02  1.720000000E+02  0.00000E+00  9.000E+00
      -6     2     1     2     0   512  1.323406506E+02  2.947980169E+01  6.794980954E+02  7.139221023E+02  1.720000000E+02  0.00000E+00  9.000E+00
      24     2     3     3     0     0 -8.162558431E+00 -8.286367647E+00  9.569007611E+01  1.291745663E+02  8.598945672E+01  0.00000E+00  9.000E+00
     -24     2     4     4     0     0  1.370098922E+02  5.741347283E+00  3.516973950E+02  3.851955021E+02  7.668013772E+01  0.00000E+00  9.000E+00
     -11     1     5     5     0     0 -1.120119345E+01 -2.465753180E+01  1.061237199E+02  1.095249037E+02  1.348699152E-06  0.00000E+00  9.000E+00
      12     1     5     5     0     0  3.038635018E+00  1.637116416E+01 -1.043364377E+01  1.964966261E+01  6.078504936E-07  0.00000E+00  9.000E+00
      13     1     6     6     0     0  6.796326697E+00  7.714324674E+00  1.114417376E+02  1.119149755E+02  1.348699152E-06  0.00000E+00  9.000E+00
     -14     1     6     6     0     0  1.302135655E+02 -1.972977391E+00  2.402556575E+02  2.732805267E+02  6.031565972E-06  0.00000E+00  9.000E+00
       5     1     3     3   502     0 -1.396179409E+02 -2.945246570E+01  1.824578968E+02  2.316766362E+02  4.750000000E+00  0.00000E+00  9.000E+00
      -5     1     4     4     0   512 -4.669241580E+00  2.373845441E+01  3.278007004E+02  3.287266002E+02  4.750000000E+00  0.00000E+00  9.000E+00
      21     1     1     2   512   513  1.543984872E+01  8.259031655E+00  3.071601231E+01  3.535638478E+01  4.768371582E-07  0.00000E+00  9.000E+00
</event>
<event>
     13  10001  1.00000E+00  1.27345E+01 -1.00000E+00  1.89833E-01
      -1    -1     0     0     0   512  0.000000000E+00  0.000000000E+00  1.965526039E+02  1.965526039E+02  0.000000000E+00  0.00000E+00  9.000E+00
       1    -1     0     0   511     0  0.000000000E+00  0.000000000E+00 -3.987054142E+02  3.987054142E+02  0.000000000E+00  0.00000E+00  9.000E+00
       6     2     1     2   502     0 -2.931274227E+01 -1.307899844E+02  7.722232575E+01  2.313277858E+02  1.720000000E+02  0.00000E+00  9.000E+00
      -6     2     1     2     0   512  1.772437314E+01  1.255101904E+02 -2.343062770E+02  3.170968192E+02  1.720000000E+02  0.00000E+00  9.000E+00
      24     2     3     3     0     0 -1.819075558E+01 -1.327704230E+02  6.290715404E-01  1.537603325E+02  7.538537849E+01  0.00000E+00  9.000E+00
     -24     2     4     4     0     0  6.819371538E+01  6.439880540E+01 -1.862582491E+02  2.242909392E+02  8.256331558E+01  0.00000E+00  9.000E+00
     -11     1     5     5     0     0 -4.576312471E+01 -7.915255738E+01 -1.183826775E+01  9.219292547E+01  1.338120956E-06  0.00000E+00  9.000E+00
      12     1     5     5     0     0  2.757236913E+01 -5.361786564E+01  1.246733929E+01  6.156740699E+01  8.596304120E-07  0.00000E+00  9.000E+00
      13     1     6     6     0     0 -3.755186668E+00  4.160644738E+01 -3.222109645E+01  5.275790886E+01  4.768371582E-07  0.00000E+00  9.000E+00
     -14     1     6     6     0     0  7.194890205E+01  2.279235801E+01 -1.540371526E+02  1.715330303E+02  3.814697266E-06  0.00000E+00  9.000E+00
       5     1     3     3   502     0 -1.112198669E+01  1.980438609E+00  7.659325421E+01  7.756745332E+01  4.750000000E+00  0.00000E+00  9.000E+00
      -5     1     4     4     0   512 -5.046934224E+01  6.111138501E+01 -4.804802794E+01  9.280588005E+01  4.750000000E+00  0.00000E+00  9.000E+00
      21     1     1     2   511   502  1.158836913E+01  5.279794003E+00 -4.506885906E+01  4.683341308E+01  8.259061849E-07  0.00000E+00  9.000E+00
</event>
<event>
     13  10001  1.00000E+00  9.37661E+01 -1.00000E+00  1.27537E-01
      21    -1     0     0   502   503  0.000000000E+00  0.000000000E+00  5.358003125E+02  5.358003125E+02  0.000000000E+00  0.00000E+00  9.000E+00
      21    -1     0     0   503   512  0.000000000E+00  0.000000000E+00 -2.975513382E+02  2.975513382E+02  0.000000000E+00  0.00000E+00  9.000E+00
       6     2     1     2   502     0  2.051603011E+02  7.950377200E+01  3.585213216E+02  4.544591697E+02  1.720000000E+02  0.00000E+00  9.000E+00
      -6     2     1     2     0   504 -1.229143947E+02 -1.245336189E+02 -1.408258963E+02  2.829001657E+02  1.720000000E+02  0.00000E+00  9.000E+00
      24     2     3     3     0     0  9.426008842E+01  5.389772922E+01  8.935516114E+01  1.621793192E+02  8.079515618E+01  0.00000E+00  9.000E+00
     -24     2     4     4     0     0 -4.322999129E+01 -1.425754875E+00 -9.137444368E+01  1.280674850E+02  7.862014263E+01  0.00000E+00  9.000E+00
     -11     1     5     5     0     0  8.755113340E+01  6.971419276E+00  6.115170054E+01  1.070202417E+02  1.168007728E-06  0.00000E+00  9.000E+00
      12     1     5     5     0     0  6.708955022E+00  4.692630995E+01  2.820346060E+01  5.515907752E+01  8.259061849E-07  0.00000E+00  9.000E+00
      13     1     6     6     0     0 -5.868866943E+01 -2.251653542E+01 -7.163323388E+01  9.530306650E+01  1.907348633E-06  0.00000E+00  9.000E+00
     -14     1     6     6     0     0  1.545867815E+01  2.109078055E+01 -1.974120980E+01  3.276441848E+01  7.152557373E-07  0.00000E+00  9.000E+00
       5     1     3     3   502     0  1.109002127E+02  2.560604278E+01  2.691661605E+02  2.922798506E+02  4.750000000E+00  0.00000E+00  9.000E+00
      -5     1     4     4     0   504 -7.968440344E+01 -1.231078641E+02 -4.945145258E+01  1.548326807E+02  4.750000000E+00  0.00000E+00  9.000E+00
      21     1     1     2   504   512 -8.224590636E+01  4.502984694E+01  2.055354896E+01  9.599231533E+01  1.369610464E-06  0.00000E+00  9.000E+00
</event>
<event>
     13  10001  1.00000E+00  3.95540E+01 -1.00000E+00  1.48462E-01
      21    -1     0     0   511   504  0.000000000E+00  0.000000000E+00  1.644352548E+02  1.644352548E+02  0.000000000E+00  0.00000E+00  9.000E+00
      21    -1     0     0   502   503  0.000000000E+00  0.000000000E+00 -3.348542905E+02  3.348542905E+02  0.000000000E+00  0.00000E+00  9.000E+00
       6     2     1     2   502     0 -7.162080918E+01 -7.529254413E-01 -1.927962597E+02  2.681128586E+02  1.720000000E+02  0.00000E+00  9.000E+00
      -6     2     1     2     0   504  5.044138966E+01 -3.265289293E+01 -6.329248204E+00  1.823036055E+02  1.720000000E+02  0.00000E+00  9.000E+00
      24     2     3     3     0     0 -8.790439300E+01  4.366915370E+01 -1.781314546E+02  2.183524806E+02  7.945321479E+01  0.00000E+00  9.000E+00
     -24     2     4     4     0     0  9.528431558E+01  1.646939782E+00  5.349492578E+00  1.244562027E+02  7.986811699E+01  0.00000E+00  9.000E+00
     -11     1     5     5     0     0  1.264544165E+01  5.552777285E+00 -5.286723475E+00  1.478817011E+01  8.920806376E-07  0.00000E+00  9.000E+00
      12     1     5     5     0     0 -1.005498346E+02  3.811637641E+01 -1.728447312E+02  2.035643104E+02  5.046370146E-06  0.00000E+00  9.000E+00
      13     1     6     6     0     0  2.264818605E+01 -3.357361805E+01 -1.127207005E+01  4.203793196E+01  1.052827938E-06  0.00000E+00  9.000E+00
     -14     1     6     6     0     0  7.263612953E+01  3.522055783E+01  1.662156263E+01  8.241827074E+01  2.489163043E-06  0.00000E+00  9.000E+00
       5     1     3     3   502     0  1.628358382E+01 -4.442207914E+01 -1.466480505E+01  4.976037805E+01  4.750000000E+00  0.00000E+00  9.000E+00
      -5     1     4     4     0   504 -4.484292592E+01 -3.429983271E+01 -1.167874078E+01  5.784740284E+01  4.750000000E+00  0.00000E+00  9.000E+00
      21     1     1     2   511   503  2.117941952E+01  3.340581837E+01  2.870647224E+01  4.887308114E+01  5.840038640E-07  0.00000E+00  9.000E+00
</event>
<event>
     13  10001  1.00000E+00  3.67370E+01 -1.00000E+00  1.50587E-01
      21    -1     0     0   512   504  0.000000000E+00  0.000000000E+00  2.799120107E+02  2.799120107E+02  0.000000000E+00  0.00000E+00  9.000E+00
      21    -1     0     0   502   503  0.000000000E+00  0.000000000E+00 -9.385059220E+02  9.385059220E+02  0.000000000E+00  0.00000E+00  9.000E+00
       6     2     1     2   502     0  3.029925336E+02 -2.839686673E+02 -4.620098705E+02  6.445772257E+02  1.720000000E+02  0.00000E+00  9.000E+00
      -6     2     1     2     0   504 -2.693055677E+02  2.986245466E+02 -2.539321946E+02  5.057347804E+02  1.720000000E+02  0.00000E+00  9.000E+00
      24     2     3     3     0     0  2.039627030E+02 -1.429102962E+02 -3.572238076E+02  4.428173365E+02  8.033808439E+01  0.00000E+00  9.000E+00
     -24     2     4     4     0     0 -1.439149712E+02  7.855551109E+01 -8.353014046E+01  2.004273867E+02  7.944410433E+01  0.00000E+00  9.000E+00
     -11     1     5     5     0     0  1.944350701E+02 -1.352713899E+02 -2.897330022E+02  3.742306214E+02  3.814697266E-06  0.00000E+00  9.000E+00
      12     1     5     5     0     0  9.527632961E+00 -7.638906226E+00 -6.749080537E+01  6.858671509E+01  1.907348633E-06  0.00000E+00  9.000E+00
      13     1     6     6     0     0 -1.071148211E+02  8.530539416E+01 -3.922919291E+01  1.424413028E+02  1.651812370E-06  0.00000E+00  9.000E+00
     -14     1     6     6     0     0 -3.680015011E+01 -6.749883074E+00 -4.430094755E+01  5.798608388E+01  1.846782373E-06  0.00000E+00  9.000E+00
       5     1     3     3   502     0  9.902983059E+01 -1.410583711E+02 -1.047860629E+02  2.017598892E+02  4.750000000E+00  0.00000E+00  9.000E+00
      -5     1     4     4     0   504 -1.253905965E+02  2.200690355E+02 -1.704020542E+02  3.053073937E+02  4.750000000E+00  0.00000E+00  9.000E+00
      21     1     1     2   512   503 -3.368696591E+01 -1.465587933E+01  5.734815387E+01  6.810592649E+01  6.743495762E-07  0.00000E+00  9.000E+00
</event>
<event>
     13  10001  1.00000E+00  1.36303E+02 -1.00000E+00  1.20230E-01
       2    -1     0     0   502     0  0.000000000E+00  0.000000000E+00  1.004801736E+03  1.004801736E+03  0.000000000E+00  0.00000E+00  9.000E+00
      21    -1     0     0   511   512  0.000000000E+00  0.000000000E+00 -8.353456188E+01  8.353456188E+01  0.000000000E+00  0.00000E+00  9.000E+00
       6     2     1     2   502     0 -8.822373582E+01 -1.260698038E+01  3.129175133E+02  3.680268110E+02  1.720000000E+02  0.00000E+00  9.000E+00
      -6     2     1     2     0   512 -1.545749006E+01 -7.587280945E+01  1.466963349E+02  2.389548742E+02  1.720000000E+02  0.00000E+00  9.000E+00
      24     2     3     3     0     0 -9.586363814E+01  4.800028220E+01  2.031933061E+02  2.423543299E+02  7.716370483E+01  0.00000E+00  9.000E+00
     -24     2     4     4     0     0  5.106427601E+01 -6.609619337E+01  8.245986578E+01  1.458441119E+02  8.657140666E+01  0.00000E+00  9.000E+00
     -11     1     5     5     0     0 -6.385993573E+01  6.403702110E+01  1.092699262E+02  1.418405733E+02  1.348699152E-06  0.00000E+00  9.000E+00
      12     1     5     5     0     0 -3.200370242E+01 -1.603673890E+01  9.392337994E+01  1.005137566E+02  1.907348633E-06  0.00000E+00  9.000E+00
      13     1     6     6     0     0  2.762848937E+01 -4.701901029E+01  9.778277460E+01  1.119624569E+02  1.907348633E-06  0.00000E+00  9.000E+00
     -14     1     6     6     0     0  2.343578663E+01 -1.907718308E+01 -1.532290882E+01  3.388165498E+01  2.152379761E-06  0.00000E+00  9.000E+00
       5     1     3     3   502     0  7.639902319E+00 -6.060726258E+01  1.097242071E+02  1.256724811E+02  4.750000000E+00  0.00000E+00  9.000E+00
      -5     1     4     4     0   512 -6.652176607E+01 -9.776616078E+00  6.423646913E+01  9.311076226E+01  4.750000000E+00  0.00000E+00  9.000E+00
       2     1     1     2   511     0  1.036812259E+02  8.847978983E+01  4.616533261E+02  4.813546129E+02  5.394796609E-06  0.00000E+00  9.000E+00
</event>
<event>
     13  10001  1.00000E+00  6.73887E+01 -1.00000E+00  1.34791E-01
      21    -1     0     0   503   512  0.000000000E+00  0.000000000E+00  4.511749997E+02  4.511749997E+02  0.000000000E+00  0.00000E+00  9.000E+00
      21    -1     0     0   502   503  0.000000000E+00  0.000000000E+00 -1.511048844E+02  1.511048844E+02  0.000000000E+00  0.00000E+00  9.000E+00
       6     2     1     2   502     0  1.057948840E+02 -3.033180918E+01  1.322151915E+02  2.432641219E+02  1.720000000E+02  0.00000E+00  9.000E+00
      -6     2     1     2     0   504 -1.720676229E+02  1.811883060E+01  1.008636696E+02  2.639943914E+02  1.720000000E+02  0.00000E+00  9.000E+00
      24     2     3     3     0     0  1.157462804E+02  2.867748085E+01  9.186718333E+01  1.709339700E+02  8.098915601E+01  0.00000E+00  9.000E+00
     -24     2     4     4     0     0 -1.468588342E+02  2.729317629E+01  1.060926939E+01  1.697178254E+02  7.986957494E+01  0.00000E+00  9.000E+00
     -11     1     5     5     0     0  6.443691934E+01  2.728687152E+01  9.671717323E+01  1.193771399E+02  0.000000000E+00  0.00000E+00  9.000E+00
      12     1     5     5     0     0  5.130936110E+01  1.390609323E+00 -4.849989901E+00  5.155683013E+01  5.559551151E-07  0.00000E+00  9.000E+00
      13     1     6     6     0     0 -5.230137869E+01 -1.346813899E+01  3.440466934E+01  6.403519543E+01  6.743495762E-07  0.00000E+00  9.000E+00
     -14     1     6     6     0     0 -9.455745553E+01  4.076131528E+01 -2.379539995E+01  1.056826300E+02  1.430511475E-06  0.00000E+00  9.000E+00
       5     1     3     3   502     0 -9.951396474E+00 -5.900929003E+01  4.034800819E+01  7.233015185E+01  4.750000000E+00  0.00000E+00  9.000E+00
      -5     1     4     4     0   504 -2.520878865E+01 -9.174345690E+00  9.025440022E+01  9.427656603E+01  4.750000000E+00  0.00000E+00  9.000E+00
      21     1     1     2   504   512  6.627273890E+01  1.221297859E+01  6.699125421E+01  9.502137080E+01  2.132480600E-06  0.00000E+00  9.000E+00
</event>
<event>
     13  10001  1.00000E+00  3.36598E+01 -1.00000E+00  1.53184E-01
       3    -1     0     0   503     0  0.000000000E+00  0.000000000E+00  2.160636177E+02  2.160636177E+02  0.000000000E+00  0.00000E+00  9.000E+00
      21    -1     0     0   502   503  0.000000000E+00  0.000000000E+00 -4.409817932E+02  4.409817932E+02  0.000000000E+00  0.00000E+00  9.000E+00
       6     2     1     2   502     0 -2.813040346E+01  1.201268384E+02 -3.240223243E+02  3.870351968E+02  1.720000000E+02  0.00000E+00  9.000E+00
      -6     2     1     2     0   504 -3.035597482E+00 -1.328414133E+02  8.250865262E+01  2.324816846E+02  1.720000000E+02  0.00000E+00  9.000E+00
      24     2     3     3     0     0 -4.223290163E+01  1.205291712E+02 -1.515489208E+02  2.139205535E+02  8.052346673E+01  0.00000E+00  9.000E+00
     -24     2     4     4     0     0 -6.937856060E+01 -8.223225601E+01  4.680819635E+01  1.415984594E+02  7.926908512E+01  0.00000E+00  9.000E+00
     -11     1     5     5     0     0 -6.112097979E+01  5.334063941E+01 -8.455350552E+01  1.171763341E+02  2.336015456E-06  0.00000E+00  9.000E+00
      12     1     5     5     0     0  1.888807816E+01  6.718853179E+01 -6.699541531E+01  9.674421932E+01  1.348699152E-06  0.00000E+00  9.000E+00
      13     1     6     6     0     0  2.449753981E-01 -1.478427576E+01 -1.926514736E+01  2.428540149E+01  2.384185791E-07  0.00000E+00  9.000E+00
     -14     1     6     6     0     0 -6.962353599E+01 -6.744798025E+01  6.607334371E+01  1.173130579E+02  9.536743164E-07  0.00000E+00  9.000E+00
       5     1     3     3   502     0  1.410249818E+01 -4.023328104E-01 -1.724734035E+02  1.731146434E+02  4.750000000E+00  0.00000E+00  9.000E+00
      -5     1     4     4     0   504  6.634296311E+01 -5.060915725E+01  3.570045627E+01  9.088322524E+01  4.750000000E+00  0.00000E+00  9.000E+00
       3     1     1     2   504     0  3.116600094E+01  1.271457487E+01  1.659549627E+01  3.752852949E+01  4.129530925E-07  0.00000E+00  9.000E+00
</event>
<event>
     13  10001  1.00000E+00  1.29596E+01 -1.00000E+00  1.89011E-01
      21    -1     0     0   503   504  0.000000000E+00  0.000000000E+00  1.875637366E+02  1.875637366E+02  0.000000000E+00  0.00000E+00  9.000E+00
      21    -1     0     0   502   511  0.000000000E+00  0.000000000E+00 -3.301323687E+02  3.301323687E+02  0.000000000E+00  0.00000E+00  9.000E+00
       6     2     1     2   502     0  8.738544796E+01  4.163297454E+01  4.384471215E+01  2.021778422E+02  1.720000000E+02  0.00000E+00  9.000E+00
      -6     2     1     2     0   504 -7.463004830E+01 -3.934133069E+01 -7.883576615E+01  2.071628887E+02  1.720000000E+02  0.00000E+00  9.000E+00
      24     2     3     3     0     0  3.858853083E+01  6.148875426E+01  8.173519722E+01  1.371113956E+02  8.275838767E+01  0.00000E+00  9.000E+00
     -24     2     4     4     0     0 -1.052026146E+02  2.086060697E+00 -3.432343411E+01  1.389366417E+02  8.398422775E+01  0.00000E+00  9.000E+00
     -11     1     5     5     0     0  5.400671858E+01  7.094036657E+01  5.475114875E+01  1.046276711E+02  1.907348633E-06  0.00000E+00  9.000E+00
      12     1     5     5     0     0 -1.541818776E+01 -9.451612312E+00  2.698404847E+01  3.248372455E+01  6.743495762E-07  0.00000E+00  9.000E+00
      13     1     6     6     0     0  2.378420680E+00  7.462680698E+00  1.767088901E+01  1.932896289E+01  6.743495762E-07  0.00000E+00  9.000E+00
     -14     1     6     6     0     0 -1.075810353E+02 -5.376620001E+00 -5.199432312E+01  1.196076788E+02  6.743495762E-07  0.00000E+00  9.000E+00
       5     1     3     3   502     0  4.879691714E+01 -1.985577972E+01 -3.789048507E+01  6.506644657E+01  4.750000000E+00  0.00000E+00  9.000E+00
      -5     1     4     4     0   504  3.057256631E+01 -4.142739139E+01 -4.451233204E+01  6.822624694E+01  4.750000000E+00  0.00000E+00  9.000E+00
      21     1     1     2   503   511 -1.275539967E+01 -2.291643852E+00 -1.075775781E+02  1.083553744E+02  0.000000000E+00  0.00000E+00  9.000E+00
</event>
<event>
     13  10001  1.00000E+00  4.70151E+00 -1.00000E+00  2.58217E-01
      21    -1     0     0   503   512  0.000000000E+00  0.000000000E+00  1.011257207E+02  1.011257207E+02  0.000000000E+00  0.00000E+00  9.000E+00
      21    -1     0     0   502   503  0.000000000E+00  0.000000000E+00 -3.858489536E+02  3.858489536E+02  0.000000000E+00  0.00000E+00  9.000E+00
       6     2     1     2   502     0 -5.678650892E+01 -3.341718331E+01 -2.235563532E+02  2.896599019E+02  1.720000000E+02  0.00000E+00  9.000E+00
      -6     2     1     2     0   504  5.481498716E+01  2.914900798E+01 -6.019027686E+01  1.925129006E+02  1.720000000E+02  0.00000E+00  9.000E+00
      24     2     3     3     0     0 -2.132407408E+01  2.094481909E+01 -2.153588563E+01  7.741560071E+01  6.808802598E+01  0.00000E+00  9.000E+00
     -24     2     4     4     0     0 -3.334607459E+01  3.583131365E+01 -3.386895257E+01  1.001419061E+02  8.053230209E+01  0.00000E+00  9.000E+00
     -11     1     5     5     0     0 -3.031251258E+01  2.495636478E+01 -4.027593675E+01  5.624784123E+01  1.348699152E-06  0.00000E+00  9.000E+00
      12     1     5     5     0     0  8.988438508E+00 -4.011545692E+00  1.874005111E+01  2.116775948E+01  1.039242493E-06  0.00000E+00  9.000E+00
      13     1     6     6     0     0  2.617958315E+01  3.952935021E+00 -6.362816284E+00  2.723016159E+01  5.331201500E-07  0.00000E+00  9.000E+00
     -14     1     6     6     0     0 -5.952565774E+01  3.187837863E+01 -2.750613629E+01  7.291174451E+01  1.581489940E-06  0.00000E+00  9.000E+00
       5     1     3     3   502     0 -3.546243484E+01 -5.436200240E+01 -2.020204676E+02  2.122443012E+02  4.750000000E+00  0.00000E+00  9.000E+00
      -5     1     4     4     0   504  8.816106176E+01 -6.682305676E+00 -2.632132429E+01  9.237099454E+01  4.750000000E+00  0.00000E+00  9.000E+00
      21     1     1     2   504   512  1.971521752E+00  4.268175333E+00 -9.766028842E-01  4.801871707E+00  9.305772183E-08  0.00000E+00  9.000E+00
</event>
<event>
     13  10001  1.00000E+00  1.30600E+01 -1.00000E+00  1.88652E-01
      21    -1     0     0   502   511  0.000000000E+00  0.000000000E+00  3.866332454E+02  3.866332454E+02  0.000000000E+00  0.00000E+00  9.000E+00
      21    -1     0     0   503   504  0.000000000E+00  0.000000000E+00 -1.906725929E+02  1.906725929E+02  0.000000000E+00  0.00000E+00  9.000E+00
       6     2     1     2   502     0 -6.053480700E+01  6.566790658E+01 -7.117806267E+01  2.064632011E+02  1.720000000E+02  0.00000E+00  9.000E+00
      -6     2     1     2     0   504  5.053141852E+01 -7.406403854E+01  1.309557016E+02  2.340348304E+02  1.720000000E+02  0.00000E+00  9.000E+00
      24     2     3     3     0     0 -9.756169751E+01  3.556001696E+01 -8.487098062E+01  1.565880155E+02  8.083268908E+01  0.00000E+00  9.000E+00
     -24     2     4     4     0     0  4.595899666E+01 -1.701255639E+01  1.469868559E+02  1.744081663E+02  8.007131965E+01  0.00000E+00  9.000E+00
     -11     1     5     5     0     0  9.655600112E+00  1.894919096E+01 -2.443764079E+01  3.239599881E+01  4.768371582E-07  0.00000E+00  9.000E+00
      12     1     5     5     0     0 -1.072172976E+02  1.661082600E+01 -6.043333982E+01  1.241920167E+02  2.236564522E-06  0.00000E+00  9.000E+00
      13     1     6     6     0     0 -2.171423150E+01 -7.061340743E+00  5.679034454E+01  6.120877074E+01  1.507891493E-06  0.00000E+00  9.000E+00
     -14     1     6     6     0     0  6.767322816E+01 -9.951215648E+00  9.019651136E+01  1.131993956E+02  2.523185073E-06  0.00000E+00  9.000E+00
       5     1     3     3   502     0  3.702689051E+01  3.010788962E+01  1.369291794E+01  4.987518562E+01  4.750000000E+00  0.00000E+00  9.000E+00
      -5     1     4     4     0   504  4.572421861E+00 -5.705148215E+01 -1.603115433E+01  5.962666405E+01  4.750000000E+00  0.00000E+00  9.000E+00
      21     1     1     2   503   511  1.000338848E+01  8.396131954E+00  1.361830136E+02  1.368078068E+02  1.907348633E-06  0.00000E+00  9.000E+00
</event>
<event>
     13  10001  1.00000E+00  2.37936E+01 -1.00000E+00  1.64464E-01
       2    -1     0     0   513     0  0.000000000E+00  0.000000000E+00  8.355708382E+02  8.355708382E+02  0.000000000E+00  0.00000E+00  9.000E+00
      -2    -1     0     0     0   512  0.000000000E+00  0.000000000E+00 -1.267922972E+02  1.267922972E+02  0.000000000E+00  0.00000E+00  9.000E+00
       6     2     1     2   502     0 -2.404201324E+00 -2.347952566E+02  2.849019477E+02  4.072931530E+02  1.720000000E+02  0.00000E+00  9.000E+00
      -6     2     1     2     0   512  2.129181803E+01  2.492656751E+02  2.925710674E+02  4.216260758E+02  1.720000000E+02  0.00000E+00  9.000E+00
      24     2     3     3     0     0 -6.164212676E+01 -1.017481323E+02  1.545046579E+02  2.117511249E+02  8.254947211E+01  0.00000E+00  9.000E+00
     -24     2     4     4     0     0  3.260212615E+01  2.209488772E+02  1.658841516E+02  2.912347370E+02  8.613254483E+01  0.00000E+00  9.000E+00
     -11     1     5     5     0     0 -3.196816671E+01 -8.159439543E+01  1.524239492E+02  1.758199913E+02  1.907348633E-06  0.00000E+00  9.000E+00
      12     1     5     5     0     0 -2.967396005E+01 -2.015373683E+01  2.080708780E+00  3.593113360E+01  1.111910230E-06  0.00000E+00  9.000E+00
      13     1     6     6     0     0 -7.654530497E+00  1.526136932E+02  7.376913128E+01  1.696803345E+02  3.438521648E-06  0.00000E+00  9.000E+00
     -14     1     6     6     0     0  4.025665665E+01  6.833518399E+01  9.211502036E+01  1.215544024E+02  1.348699152E-06  0.00000E+00  9.000E+00
       5     1     3     3   502     0  5.923792543E+01 -1.330471243E+02  1.303972898E+02  1.955420282E+02  4.750000000E+00  0.00000E+00  9.000E+00
      -5     1     4     4     0   512 -1.131030812E+01  2.831679792E+01  1.266869158E+02  1.303913389E+02  4.750000000E+00  0.00000E+00  9.000E+00
      21     1     1     2   513   502 -1.888761671E+01 -1.447041854E+01  1.313055258E+02  1.334439065E+02  2.697398305E-06  0.00000E+00  9.000E+00
</event>
<event>
     13  10001  1.00000E+00  5.17199E+01 -1.00000E+00  1.41242E-01
      21    -1     0     0   503   511  0.000000000E+00  0.000000000E+00  3.349036506E+02  3.349036506E+02  0.000000000E+00  0.00000E+00  9.000E+00
      21    -1     0     0   502   503  0.000000000E+00  0.000000000E+00 -3.024411055E+02  3.024411055E+02  0.000000000E+00  0.00000E+00  9.000E+00
       6     2     1     2   502     0  1.011143027E+02 -1.162713643E+02 -1.491279991E+02  2.748932383E+02  1.720000000E+02  0.00000E+00  9.000E+00
      -6     2     1     2     0   504 -5.078296725E+01  1.281753610E+02  5.719822022E+01  2.277355250E+02  1.720000000E+02  0.00000E+00  9.000E+00
      24     2     3     3     0     0  8.356541509E+01 -8.557857624E+00 -1.020694200E+02  1.559510871E+02  8.274152244E+01  0.00000E+00  9.000E+00
     -24     2     4     4     0     0  2.261782515E+01  3.399869961E+01 -7.293551703E+00  9.194645683E+01  8.205776890E+01  0.00000E+00  9.000E+00
     -11     1     5     5     0     0  1.520088544E+01 -3.332883203E+01 -8.777063900E+00  3.766848568E+01  9.830249847E-07  0.00000E+00  9.000E+00
      12     1     5     5     0     0  6.836452964E+01  2.477097440E+01 -9.329235611E+01  1.182826014E+02  1.907348633E-06  0.00000E+00  9.000E+00
      13     1     6     6     0     0 -2.150638148E+01 -4.112346235E+00  1.804557721E+01  2.837390866E+01  7.907449699E-07  0.00000E+00  9.000E+00
     -14     1     6     6     0     0  4.412420663E+01  3.811104584E+01 -2.533912892E+01  6.357254816E+01  4.768371582E-07  0.00000E+00  9.000E+00
       5     1     3     3   502     0  1.754888758E+01 -1.077135067E+02 -4.705857910E+01  1.189421512E+02  4.750000000E+00  0.00000E+00  9.000E+00
      -5     1     4     4     0   504 -7.340079240E+01  9.417666142E+01  6.449177192E+01  1.357890681E+02  4.750000000E+00  0.00000E+00  9.000E+00
      21     1     1     2   504   511 -5.033133542E+01 -1.190399672E+01  1.243923240E+02  1.347159928E+02  0.000000000E+00  0.00000E+00  9.000E+00
</event>
<event>
     13  10001  1.00000E+00  1.61580E+01 -1.00000E+00  1.79267E-01
      21    -1     0     0   502   503  0.000000000E+00  0.000000000E+00  3.872423016E+02  3.872423016E+02  0.000000000E+00  0.00000E+00  9.000E+00
      21    -1     0     0   512   504  0.000000000E+00  0.000000000E+00 -2.875915138E+02  2.875915138E+02  0.000000000E+00  0.00000E+00  9.000E+00
       6     2     1     2   502     0 -2.017098670E+01  1.120582270E+02  8.016671261E+01  2.213020939E+02  1.720000000E+02  0.00000E+00  9.000E+00
      -6     2     1     2     0   504  6.138928721E+00 -1.040468725E+02  1.933105258E+02  2.789559060E+02  1.720000000E+02  0.00000E+00  9.000E+00
      24     2     3     3     0     0 -7.621583232E+01  4.861082278E+01  5.477849988E+01  1.327937798E+02  8.038431876E+01  0.00000E+00  9.000E+00
     -24     2     4     4     0     0 -4.470752455E+01 -1.045956567E+02  1.773208318E+02  2.254405270E+02  8.026044907E+01  0.00000E+00  9.000E+00
     -11     1     5     5     0     0  9.884738734E+00  2.602925718E+01  2.882142688E+01  4.007374373E+01  8.920806376E-07  0.00000E+00  9.000E+00
      12     1     5     5     0     0 -8.610057105E+01  2.258156560E+01  2.595707301E+01  9.272003602E+01  1.118282261E-06  0.00000E+00  9.000E+00
      13     1     6     6     0     0 -2.204499768E+01 -9.333257454E+01  8.001415611E+01  1.248968237E+02  2.523185073E-06  0.00000E+00  9.000E+00
     -14     1     6     6     0     0 -2.266252686E+01 -1.126308215E+01  9.730667569E+01  1.005437033E+02  1.907348633E-06  0.00000E+00  9.000E+00
       5     1     3     3   502     0  5.604484562E+01  6.344740425E+01  2.538821273E+01  8.850831414E+01  4.750000000E+00  0.00000E+00  9.000E+00
      -5     1     4     4     0   504  5.084645327E+01  5.487842129E-01  1.598969398E+01  5.351537898E+01  4.750000000E+00  0.00000E+00  9.000E+00
      21     1     1     2   512   503  1.403205798E+01 -8.011354564E+00 -1.738264505E+02  1.745758155E+02  0.000000000E+00  0.00000E+00  9.000E+00
</event>
<event>
     13  10001  1.00000E+00  1.83154E+02 -1.00000E+00  1.15036E-01
      21    -1     0     0   502   503  0.000000000E+00  0.000000000E+00  2.442596060E+02  2.442596060E+02  0.000000000E+00  0.00000E+00  9.000E+00
       2    -1     0     0   503     0  0.000000000E+00  0.000000000E+00 -1.272014270E+03  1.272014270E+03  0.000000000E+00  0.00000E+00  9.000E+00
       6     2     1     2   502     0  3.383988905E+01  2.555238029E+02 -4.940565974E+02  5.831924840E+02  1.720000000E+02  0.00000E+00  9.000E+00
      -6     2     1     2     0   504 -9.411830037E+01 -8.257342284E+01  1.267951001E+02  2.476643334E+02  1.720000000E+02  0.00000E+00  9.000E+00
      24     2     3     3     0     0  2.443624280E+01  2.310630090E+02 -4.988510845E+02  5.561312828E+02  8.026428306E+01  0.00000E+00  9.000E+00
     -24     2     4     4     0     0 -1.179895789E+02 -9.598749513E+01  1.358251808E+02  2.184431060E+02  7.831839441E+01  0.00000E+00  9.000E+00
     -11     1     5     5     0     0 -2.368265657E+01  1.395892578E+02 -3.113242908E+02  3.420070806E+02  6.607249480E-06  0.00000E+00  9.000E+00
      12     1     5     5     0     0  4.811889937E+01  9.147375117E+01 -1.875267937E+02  2.141242022E+02  0.000000000E+00  0.00000E+00  9.000E+00
      13     1     6     6     0     0 -8.947956231E+01 -8.883472182E+01  6.520564883E+01  1.419506129E+02  1.348699152E-06  0.00000E+00  9.000E+00
     -14     1     6     6     0     0 -2.851001654E+01 -7.152773307E+00  7.061953194E+01  7.649249310E+01  1.348699152E-06  0.00000E+00  9.000E+00
       5     1     3     3   502     0  9.403646244E+00  2.446079398E+01  4.794487076E+00  2.706120122E+01  4.750000000E+00  0.00000E+00  9.000E+00
      -5     1     4     4     0   504  2.387127849E+01  1.341407229E+01 -9.030080646E+00  2.922122736E+01  4.750000000E+00  0.00000E+00  9.000E+00
       2     1     1     2   504     0  6.027841132E+01 -1.729503801E+02 -6.604931672E+02  6.854170590E+02  1.078959322E-05  0.00000E+00  9.000E+00
</event>
<event>
     13  10001  1.00000E+00  4.92069E+01 -1.00000E+00  1.42528E-01
      21    -1     0     0   503   504  0.000000000E+00  0.000000000E+00  1.248008326E+02  1.248008326E+02  0.000000000E+00  0.00000E+00  9.000E+00
      21    -1     0     0   511   503  0.000000000E+00  0.000000000E+00 -6.572984862E+02  6.572984862E+02  0.000000000E+00  0.00000E+00  9.000E+00
       6     2     1     2   502     0  4.605154490E+01 -8.123170935E+01 -1.058596248E+02  2.225075180E+02  1.720000000E+02  0.00000E+00  9.000E+00
      -6     2     1     2     0   504 -3.535072513E+01  3.320247971E+01 -5.829189699E+01  1.879734654E+02  1.720000000E+02  0.00000E+00  9.000E+00
      24     2     3     3     0     0  7.436891014E+01 -3.399850324E+01 -1.183116333E+02  1.658465619E+02  8.258817406E+01  0.00000E+00  9.000E+00
     -24     2     4     4     0     0  3.309715584E+01  3.261768520E+01 -7.288723333E+01  1.178233354E+02  8.006531376E+01  0.00000E+00  9.000E+00
     -11     1     5     5     0     0  2.422132970E+01 -5.434057463E+01 -7.929076067E+01  9.912918637E+01  2.336015456E-06  0.00000E+00  9.000E+00
      12     1     5     5     0     0  5.014758044E+01  2.034207139E+01 -3.902087259E+01  6.671737548E+01  4.768371582E-07  0.00000E+00  9.000E+00
      13     1     6     6     0     0 -1.303365977E+01  4.328110725E+01 -3.696542939E+01  5.839155335E+01  4.768371582E-07  0.00000E+00  9.000E+00
     -14     1     6     6     0     0  4.613081561E+01 -1.066342206E+01 -3.592180393E+01  5.943178204E+01  1.066240300E-06  0.00000E+00  9.000E+00
       5     1     3     3   502     0 -2.831736524E+01 -4.723320611E+01  1.245200846E+01  5.666095612E+01  4.750000000E+00  0.00000E+00  9.000E+00
      -5     1     4     4     0   504 -6.844788097E+01  5.847945145E-01  1.459533633E+01  7.015012998E+01  4.750000000E+00  0.00000E+00  9.000E+00
      21     1     1     2   511   502 -1.070081977E+01  4.802922964E+01 -3.683461318E+02  3.716183355E+02  5.394796609E-06  0.00000E+00  9.000E+00
</event>
<event>
     13  10001  1.00000E+00  4.03689E+01 -1.00000E+00  1.47887E-01
      21    -1     0     0   503   512  0.000000000E+00  0.000000000E+00  3.480468903E+02  3.480468903E+02  0.000000000E+00  0.00000E+00  9.000E+00
      21    -1     0     0   502   503  0.000000000E+00  0.000000000E+00 -2.523453384E+02  2.523453384E+02  0.000000000E+00  0.00000E+00  9.000E+00
       6     2     1     2   502     0  6.442586267E+01  5.249167597E-02  1.424499365E+02  2.324363977E+02  1.720000000E+02  0.00000E+00  9.000E+00
      -6     2     1     2     0   504 -9.967365124E+01  1.962599137E+01 -1.547290390E+02  2.526758631E+02  1.720000000E+02  0.00000E+00  9.000E+00
      24     2     3     3     0     0  7.235970629E+01 -5.678177970E+01  1.223108741E+02  1.714345566E+02  7.726421988E+01  0.00000E+00  9.000E+00
     -24     2     4     4     0     0 -1.197431591E+02  7.194729312E+00 -1.707923238E+02  2.237291355E+02  8.058858443E+01  0.00000E+00  9.000E+00
     -11     1     5     5     0     0  2.072144711E+01  8.037419855E+00 -1.689657038E+00  2.228976063E+01  7.512904803E-07  0.00000E+00  9.000E+00
      12     1     5     5     0     0  5.163825918E+01 -6.481919955E+01  1.240005311E+02  1.491447960E+02  4.264961200E-06  0.00000E+00  9.000E+00
      13     1     6     6     0     0 -4.702173916E+01 -3.641601295E+01 -6.403974340E+01  8.739713203E+01  9.536743164E-07  0.00000E+00  9.000E+00
     -14     1     6     6     0     0 -7.272141990E+01  4.361074226E+01 -1.067525804E+02  1.363320035E+02  1.907348633E-06  0.00000E+00  9.000E+00
       5     1     3     3   502     0 -7.933843621E+00  5.683427137E+01  2.013906244E+01  6.100184106E+01  4.750000000E+00  0.00000E+00  9.000E+00
      -5     1     4     4     0   504  2.006950782E+01  1.243126206E+01  1.606328478E+01  2.894672760E+01  4.750000000E+00  0.00000E+00  9.000E+00
      21     1     1     2   504   512  3.524778858E+01 -1.967848305E+01  1.079806543E+02  1.152799679E+02  1.348699152E-06  0.00000E+00  9.000E+00
</event>
<event>
     13  10001  1.00000E+00  7.26702E+01 -1.00000E+00  1.33060E-01
      21    -1     0     0   502   503  0.000000000E+00  0.000000000E+00  7.993960218E+01  7.993960218E+01  0.000000000E+00  0.00000E+00  9.000E+00
      21    -1     0     0   503   511  0.000000000E+00  0.000000000E+00 -7.168741437E+02  7.168741437E+02  0.000000000E+00  0.00000E+00  9.000E+00
       6     2     1     2   502     0 -1.037736225E+01 -5.292248566E+01 -2.500855720E+02  3.082779143E+02  1.720000000E+02  0.00000E+00  9.000E+00
      -6     2     1     2     0   504  2.145240599E+01 -1.889880813E+01 -1.192349384E+02  2.112305404E+02  1.720000000E+02  0.00000E+00  9.000E+00
      24     2     3     3     0     0  4.125016253E+01 -8.162132871E+01 -1.540569597E+02  1.954369563E+02  7.809250846E+01  0.00000E+00  9.000E+00
     -24     2     4     4     0     0 -3.272763652E+01  1.766660387E+01 -1.819694706E+01  9.079904723E+01  8.080922602E+01  0.00000E+00  9.000E+00
     -11     1     5     5     0     0  2.883144635E+01  3.565712463E+00 -1.721630865E+01  3.376933354E+01  8.259061849E-07  0.00000E+00  9.000E+00
      12     1     5     5     0     0  1.241871618E+01 -8.518704118E+01 -1.368406510E+02  1.616676228E+02  2.697398305E-06  0.00000E+00  9.000E+00
      13     1     6     6     0     0 -5.744774800E+00  1.760196458E+01  3.017925636E+01  3.540648399E+01  1.507891493E-06  0.00000E+00  9.000E+00
     -14     1     6     6     0     0 -2.698286172E+01  6.463929399E-02 -4.837620342E+01  5.539256323E+01  6.743495762E-07  0.00000E+00  9.000E+00
       5     1     3     3   502     0 -5.162752479E+01  2.869884305E+01 -9.602861236E+01  1.128409580E+02  4.750000000E+00  0.00000E+00  9.000E+00
      -5     1     4     4     0   504  5.418004251E+01 -3.656541200E+01 -1.010379913E+02  1.204314932E+02  4.750000000E+00  0.00000E+00  9.000E+00
      21     1     1     2   504   511 -1.107504374E+01  7.182129379E+01 -2.676140312E+02  2.773052912E+02  5.394796609E-06  0.00000E+00  9.000E+00
</event>
<event>
     13  10001  1.00000E+00  3.60709E+01 -1.00000E+00  1.51122E-01
       2    -1     0     0   503     0  0.000000000E+00  0.000000000E+00  1.199622845E+03  1.199622845E+03  0.000000000E+00  0.00000E+00  9.000E+00
      21    -1     0     0   502   503  0.000000000E+00  0.000000000E+00 -2.012893099E+02  2.012893099E+02  0.000000000E+00  0.00000E+00  9.000E+00
       6     2     1     2   502     0  5.130465735E+01  5.268778024E+01  3.743355762E+02  4.184725722E+02  1.720000000E+02  0.00000E+00  9.000E+00
      -6     2     1     2     0   504 -7.197091027E+01 -2.312396360E+01 -1.294316156E+02  2.281470419E+02  1.720000000E+02  0.00000E+00  9.000E+00
      24     2     3     3     0     0  2.570873280E+01 -3.116760566E+00  3.340819302E+02  3.449048031E+02  8.171862693E+01  0.00000E+00  9.000E+00
     -24     2     4     4     0     0 -5.128690896E+01  4.627605509E+01 -1.106987601E+02  1.531959053E+02  8.026798625E+01  0.00000E+00  9.000E+00
     -11     1     5     5     0     0  1.662361764E+01 -9.166512980E+00  1.161844166E+01  2.225663520E+01  1.460009660E-06  0.00000E+00  9.000E+00
      12     1     5     5     0     0  9.085115164E+00  6.049752415E+00  3.224634885E+02  3.226481679E+02  5.394796609E-06  0.00000E+00  9.000E+00
      13     1     6     6     0     0 -7.075599065E+01  4.022188378E+01 -1.032897439E+02  1.315027808E+02  1.348699152E-06  0.00000E+00  9.000E+00
     -14     1     6     6     0     0  1.946908169E+01  6.054171307E+00 -7.409016132E+00  2.169312454E+01  7.102713160E-07  0.00000E+00  9.000E+00
       5     1     3     3   502     0  2.559592454E+01  5.580454081E+01  4.025364601E+01  7.356776907E+01  4.750000000E+00  0.00000E+00  9.000E+00
      -5     1     4     4     0   504 -2.068400131E+01 -6.940001869E+01 -1.873285556E+01  7.495113663E+01  4.750000000E+00  0.00000E+00  9.000E+00
       2     1     1     2   504     0  2.066625293E+01 -2.956381665E+01  7.534295745E+02  7.542925408E+02  1.078959322E-05  0.00000E+00  9.000E+00
</event>
<event>
     13  10001  1.00000E+00  2.89998E+01 -1.00000E+00  1.57829E-01
      21    -1     0     0   502   503  0.000000000E+00  0.000000000E+00  5.385203145E+02  5.385203145E+02  0.000000000E+00  0.00000E+00  9.000E+00
      21    -1     0     0   503   511  0.000000000E+00  0.000000000E+00 -1.554712743E+02  1.554712743E+02  0.000000000E+00  0.00000E+00  9.000E+00
       6     2     1     2   502     0 -7.099208022E+01 -1.720282221E+02  3.003853222E+02  3.929999064E+02  1.720000000E+02  0.00000E+00  9.000E+00
      -6     2     1     2     0   504  9.818553580E+01  1.619531714E+02  8.977545827E+01  2.711325544E+02  1.720000000E+02  0.00000E+00  9.000E+00
      24     2     3     3     0     0 -7.566540633E+01 -5.181291438E+01  2.101106480E+02  2.425152245E+02  7.910321050E+01  0.00000E+00  9.000E+00
     -24     2     4     4     0     0  1.331876151E+02  1.063261736E+02  7.227937024E+01  2.029549625E+02  8.319984040E+01  0.00000E+00  9.000E+00
     -11     1     5     5     0     0 -4.820266209E+01  1.359132573E+01  9.157958161E+01  1.043793109E+02  1.907348633E-06  0.00000E+00  9.000E+00
      12     1     5     5     0     0 -2.746274424E+01 -6.540424010E+01  1.185310664E+02  1.381359137E+02  1.348699152E-06  0.00000E+00  9.000E+00
      13     1     6     6     0     0  2.418086892E+01  4.717911567E+01 -1.023472437E+01  5.399382335E+01  1.332800375E-06  0.00000E+00  9.000E+00
     -14     1     6     6     0     0  1.090067462E+02  5.914705794E+01  8.251409461E+01  1.489611392E+02  2.336015456E-06  0.00000E+00  9.000E+00
       5     1     3     3   502     0  4.673326110E+00 -1.202153077E+02  9.027467424E+01  1.504846819E+02  4.750000000E+00  0.00000E+00  9.000E+00
      -5     1     4     4     0   504 -3.500207932E+01  5.562699775E+01  1.749608803E+01  6.817759187E+01  4.750000000E+00  0.00000E+00  9.000E+00
      21     1     1     2   504   511 -2.719345558E+01  1.007505071E+01 -7.111740258E+00  2.985912797E+01  3.862822472E-07  0.00000E+00  9.000E+00
</event>
<event>
     13  10001  1.00000E+00  6.48807E+01 -1.00000E+00  1.35678E-01
       2    -1     0     0   502     0  0.000000000E+00  0.000000000E+00  8.350025061E+02  8.350025061E+02  0.000000000E+00  0.00000E+00  9.000E+00
      21    -1     0     0   503   504  0.000000000E+00  0.000000000E+00 -1.209803745E+02  1.209803745E+02  0.000000000E+00  0.00000E+00  9.000E+00
       6     2     1     2   502     0  3.232586193E+01  5.041209732E+01  1.376040917E+01  1.826463516E+02  1.720000000E+02  0.00000E+00  9.000E+00
      -6     2     1     2     0   504 -9.274166740E+01 -2.675958310E+01  2.500541123E+02  3.184778662E+02  1.720000000E+02  0.00000E+00  9.000E+00
      24     2     3     3     0     0  2.491746297E+00 -1.679390001E+01  5.379426153E+01  9.878937597E+01  8.110039675E+01  0.00000E+00  9.000E+00
     -24     2     4     4     0     0 -1.033181983E+02  2.319421266E+01  2.248105964E+02  2.613198194E+02  8.084319484E+01  0.00000E+00  9.000E+00
     -11     1     5     5     0     0  5.965843526E+00 -4.452012237E+01  8.720453959E+00  4.575673614E+01  3.576278687E-07  0.00000E+00  9.000E+00
      12     1     5     5     0     0 -3.474097229E+00  2.772622236E+01  4.507380758E+01  5.303263983E+01  6.743495762E-07  0.00000E+00  9.000E+00
      13     1     6     6     0     0 -3.423864395E+01  8.872375580E+00  1.652453470E+02  1.689882496E+02  1.907348633E-06  0.00000E+00  9.000E+00
     -14     1     6     6     0     0 -6.907955435E+01  1.432183708E+01  5.956524935E+01  9.233156977E+01  1.907348633E-06  0.00000E+00  9.000E+00
       5     1     3     3   502     0  2.983411564E+01  6.720599734E+01 -4.003385236E+01  8.385697567E+01  4.750000000E+00  0.00000E+00  9.000E+00
      -5     1     4     4     0   504  1.057653090E+01 -4.995379577E+01  2.524351592E+01  5.715804680E+01  4.750000000E+00  0.00000E+00  9.000E+00
       2     1     1     2   503     0  6.041580547E+01 -2.365251422E+01  4.502076101E+02  4.548586628E+02  0.000000000E+00  0.00000E+00  9.000E+00
</event>
<event>
     13  10001  1.00000E+00  1.81191E+01 -1.00000E+00  1.74605E-01
      21    -1     0     0   502   511  0.000000000E+00  0.000000000E+00  3.540475613E+02  3.540475613E+02  0.000000000E+00  0.00000E+00  9.000E+00
      21    -1     0     0   503   504  0.000000000E+00  0.000000000E+00 -1.425769237E+02  1.425769237E+02  0.000000000E+00  0.00000E+00  9.000E+00
       6     2     1     2   502     0 -3.135673730E+01 -7.093550669E+00  2.351803267E+02  2.931336718E+02  1.720000000E+02  0.00000E+00  9.000E+00
      -6     2     1     2     0   504  4.863363736E+01  1.633688719E+00 -3.499544172E+01  1.821443948E+02  1.720000000E+02  0.00000E+00  9.000E+00
      24     2     3     3     0     0  2.602989597E+00  5.217113701E+01  1.891899577E+02  2.106518992E+02  7.650346049E+01  0.00000E+00  9.000E+00
     -24     2     4     4     0     0  3.059035633E+01  4.859367914E+01 -6.958258060E+01  1.209101449E+02  8.050100656E+01  0.00000E+00  9.000E+00
     -11     1     5     5     0     0  6.824012439E-01  4.951876614E+01  4.652578437E+01  6.795014704E+01  6.743495762E-07  0.00000E+00  9.000E+00
      12     1     5     5     0     0  1.920588353E+00  2.652370874E+00  1.426641733E+02  1.427017522E+02  2.697398305E-06  0.00000E+00  9.000E+00
      13     1     6     6     0     0  6.764310887E+00  1.817042003E+01 -7.882754467E+01  8.117697866E+01  2.336015456E-06  0.00000E+00  9.000E+00
     -14     1     6     6     0     0  2.382604544E+01  3.042325911E+01  9.244964072E+00  3.973316620E+01  1.215700987E-06  0.00000E+00  9.000E+00
       5     1     3     3   502     0 -3.395972690E+01 -5.926468768E+01  4.599036908E+01  8.248177256E+01  4.750000000E+00  0.00000E+00  9.000E+00
      -5     1     4     4     0   504  1.804328103E+01 -4.695999042E+01  3.458713888E+01  6.123424995E+01  4.750000000E+00  0.00000E+00  9.000E+00
      21     1     1     2   503   511 -1.727690006E+01  5.459861950E+00  1.128575257E+01  2.134641842E+01  1.192092896E-07  0.00000E+00  9.000E+00
</event>
<event>
     13  10001  1.00000E+00  3.32505E+01 -1.00000E+00  1.53555E-01
      21    -1     0     0   512   503  0.000000000E+00  0.000000000E+00  5.548990744E+02  5.548990744E+02  0.000000000E+00  0.00000E+00  9.000E+00
      21    -1     0     0   503   504  0.000000000E+00  0.000000000E+00 -9.206256370E+01  9.206256370E+01  0.000000000E+00  0.00000E+00  9.000E+00
       6     2     1     2   502     0  4.188584461E+01  7.314421769E+01  3.152050063E+02  3.688396624E+02  1.720000000E+02  0.00000E+00  9.000E+00
      -6     2     1     2     0   504 -1.937821913E+01 -9.761872752E+01  1.072508955E+02  2.258133874E+02  1.720000000E+02  0.00000E+00  9.000E+00
      24     2     3     3     0     0 -3.741559441E+01  4.402381460E+01  1.028545200E+02  1.402526819E+02  7.585340827E+01  0.00000E+00  9.000E+00
     -24     2     4     4     0     0 -3.033966768E+01 -8.420057376E+01  3.192953919E+00  1.202159541E+02  8.019631296E+01  0.00000E+00  9.000E+00
     -11     1     5     5     0     0 -4.161844310E+01 -2.369816107E+00  2.249690040E+01  4.736899156E+01  1.617033478E-06  0.00000E+00  9.000E+00
      12     1     5     5     0     0  4.202848690E+00  4.639363071E+01  8.035761959E+01  9.288369036E+01  0.000000000E+00  0.00000E+00  9.000E+00
      13     1     6     6     0     0 -1.380220554E+01 -1.635796371E+01  3.691480181E+01  4.267067432E+01  4.768371582E-07  0.00000E+00  9.000E+00
     -14     1     6     6     0     0 -1.653746214E+01 -6.784261005E+01 -3.372184789E+01  7.754527979E+01  3.693564745E-06  0.00000E+00  9.000E+00
       5     1     3     3   502     0  7.930143902E+01  2.912040309E+01  2.123504864E+02  2.285869805E+02  4.750000000E+00  0.00000E+00  9.000E+00
      -5     1     4     4     0   504  1.096144855E+01 -1.341815376E+01  1.040579416E+02  1.055974333E+02  4.750000000E+00  0.00000E+00  9.000E+00
      21     1     1     2   512   502 -2.250762548E+01  2.447450983E+01  4.038060878E+01  5.230858822E+01  4.768371582E-07  0.00000E+00  9.000E+00
</event>
<event>
     13  10001  1.00000E+00  2.93722E+01 -1.00000E+00  1.57420E-01
      21    -1     0     0   502   503  0.000000000E+00  0.000000000E+00  2.339420083E+02  2.339420083E+02  0.000000000E+00  0.00000E+00  9.000E+00
      21    -1     0     0   511   504  0.000000000E+00  0.000000000E+00 -4.015671372E+02  4.015671372E+02  0.000000000E+00  0.00000E+00  9.000E+00
       6     2     1     2   502     0  3.976045141E+01  1.939309144E+02 -6.713421120E+00  2.623340677E+02  1.720000000E+02  0.00000E+00  9.000E+00
      -6     2     1     2     0   504 -1.712342872E+01 -1.752147893E+02 -4.074982247E+01  2.494754141E+02  1.720000000E+02  0.00000E+00  9.000E+00
      24     2     3     3     0     0  5.994596448E+01  1.465717131E+02  5.143505635E+01  1.845256053E+02  7.954463064E+01  0.00000E+00  9.000E+00
     -24     2     4     4     0     0  2.918171309E+00 -1.425836251E+02 -9.024916198E+01  1.867123221E+02  7.986221947E+01  0.00000E+00  9.000E+00
     -11     1     5     5     0     0  4.766079890E+01  1.550773904E+02  4.608811918E+01  1.686554580E+02  2.023048729E-06  0.00000E+00  9.000E+00
      12     1     5     5     0     0  1.228516558E+01 -8.505677330E+00  5.346937171E+00  1.587014736E+01  3.371747881E-07  0.00000E+00  9.000E+00
      13     1     6     6     0     0  2.415853136E+01 -9.926462490E+01 -2.432225063E+01  1.050174855E+02  2.261837239E-06  0.00000E+00  9.000E+00
     -14     1     6     6     0     0 -2.124036005E+01 -4.331900020E+01 -6.592691135E+01  8.169483651E+01  1.651812370E-06  0.00000E+00  9.000E+00
       5     1     3     3   502     0 -2.018551307E+01  4.735920134E+01 -5.814847747E+01  7.780846241E+01  4.750000000E+00  0.00000E+00  9.000E+00
      -5     1     4     4     0   504 -2.004160003E+01 -3.263116419E+01  4.949933951E+01  6.276309202E+01  4.750000000E+00  0.00000E+00  9.000E+00
      21     1     1     2   511   503 -2.263702269E+01 -1.871612515E+01 -1.201618853E+02  1.236996638E+02  0.000000000E+00  0.00000E+00  9.000E+00
</event>
<event>
     13  10001  1.00000E+00  1.36608E+01 -1.00000E+00  1.86585E-01
      21    -1     0     0   512   504  0.000000000E+00  0.000000000E+00  4.038032457E+02  4.038032457E+02  0.000000000E+00  0.00000E+00  9.000E+00
      21    -1     0     0   502   503  0.000000000E+00  0.000000000E+00 -1.643881995E+02  1.643881995E+02  0.000000000E+00  0.00000E+00  9.000E+00
       6     2     1     2   502     0  9.333661038E+01 -7.150648202E+01  2.868374697E+01  2.103132358E+02  1.720000000E+02  0.00000E+00  9.000E+00
      -6     2     1     2     0   504 -8.274412957E+01  6.287992451E+01  6.456669088E+01  2.110766057E+02  1.720000000E+02  0.00000E+00  9.000E+00
      24     2     3     3     0     0  8.205560430E+01 -4.137261250E+01 -4.465478497E+01  1.300859714E+02  8.052015190E+01  0.00000E+00  9.000E+00
     -24     2     4     4     0     0 -6.953866417E+01  1.000628372E+02  1.415246446E+01  1.468807332E+02  8.078032159E+01  0.00000E+00  9.000E+00
     -11     1     5     5     0     0  5.216441074E+00 -4.275672096E+01 -2.822551077E+01  5.149784367E+01  5.840038640E-07  0.00000E+00  9.000E+00
      12     1     5     5     0     0  7.683916323E+01  1.384108469E+00 -1.642927420E+01  7.858812768E+01  1.348699152E-06  0.00000E+00  9.000E+00
      13     1     6     6     0     0  1.416029827E+01  4.813470685E-01  8.814818708E+00  1.668672439E+01  1.685873940E-07  0.00000E+00  9.000E+00
     -14     1     6     6     0     0 -8.369896243E+01  9.958149009E+01  5.337645756E+00  1.301940089E+02  3.159046173E-06  0.00000E+00  9.000E+00
       5     1     3     3   502     0  1.128100608E+01 -3.013386953E+01  7.333853194E+01  8.022726443E+01  4.750000000E+00  0.00000E+00  9.000E+00
      -5     1     4     4     0   504 -1.320546540E+01 -3.718291264E+01  5.041422641E+01  6.419587241E+01  4.750000000E+00  0.00000E+00  9.000E+00
      21     1     1     2   512   503 -1.059248081E+01  8.626557513E+00  1.461646083E+02  1.468016038E+02  1.907348633E-06  0.00000E+00  9.000E+00
</event>
<event>
     13  10001  1.00000E+00  1.26541E+02 -1.00000E+00  1.21613E-01
      21    -1     0     0   503   511  0.000000000E+00  0.000000000E+00  1.093170755E+02  1.093170755E+02  0.000000000E+00  0.00000E+00  9.000E+00
      21    -1     0     0   502   503  0.000000000E+00  0.000000000E+00 -5.756567112E+02  5.756567112E+02  0.000000000E+00  0.00000E+00  9.000E+00
       6     2     1     2   502     0  3.458067252E+01  8.411963273E+00 -1.715209900E+02  2.454995602E+02  1.720000000E+02  0.00000E+00  9.000E+00
      -6     2     1     2     0   504  8.465963508E+01 -5.077224841E+01 -1.970140970E+02  2.795418206E+02  1.720000000E+02  0.00000E+00  9.000E+00
      24     2     3     3     0     0  4.190372146E+01 -4.497522654E+01 -5.138665543E+01  1.137473688E+02  8.074145581E+01  0.00000E+00  9.000E+00
     -24     2     4     4     0     0 -1.576154224E+01 -3.166904686E+01 -4.987571964E+01  1.003167951E+02  7.952683335E+01  0.00000E+00  9.000E+00
     -11     1     5     5     0     0 -1.687032870E+01  9.031229606E+00 -2.081399957E+01  2.827355083E+01  4.129530925E-07  0.00000E+00  9.000E+00
      12     1     5     5     0     0  5.877405016E+01 -5.400645614E+01 -3.057265586E+01  8.547381800E+01  1.118282261E-06  0.00000E+00  9.000E+00
      13     1     6     6     0     0  2.011886000E+01  9.717305773E+00  4.877744066E+00  2.286890785E+01  6.078504936E-07  0.00000E+00  9.000E+00
     -14     1     6     6     0     0 -3.588040223E+01 -4.138635263E+01 -5.475346371E+01  7.744788723E+01  6.743495762E-07  0.00000E+00  9.000E+00
       5     1     3     3   502     0 -7.323048944E+00  5.338718981E+01 -1.201343346E+02  1.317521913E+02  4.750000000E+00  0.00000E+00  9.000E+00
      -5     1     4     4     0   504  1.004211773E+02 -1.910320155E+01 -1.471383774E+02  1.792250255E+02  4.750000000E+00  0.00000E+00  9.000E+00
      21     1     1     2   504   511 -1.192403076E+02  4.236028514E+01 -9.780454872E+01  1.599324059E+02  2.336015456E-06  0.00000E+00  9.000E+00
</event>
<event>
     13  10001  1.00000E+00  3.96041E+02 -1.00000E+00  1.03412E-01
      21    -1     0     0   502   512  0.000000000E+00  0.000000000E+00  5.225206632E+02  5.225206632E+02  0.000000000E+00  0.00000E+00  9.000E+00
      21    -1     0     0   503   504  0.000000000E+00  0.000000000E+00 -5.518765775E+02  5.518765775E+02  0.000000000E+00  0.00000E+00  9.000E+00
       6     2     1     2   502     0  2.774974853E+02  5.305615446E+00 -3.885298171E+01  3.288260301E+02  1.720000000E+02  0.00000E+00  9.000E+00
      -6     2     1     2     0   504  1.168602125E+02  3.117214806E+01 -2.062856710E+02  2.945603336E+02  1.720000000E+02  0.00000E+00  9.000E+00
      24     2     3     3     0     0  2.635191046E+02  3.245551543E+01 -6.930176148E+01  2.854416679E+02  7.860364259E+01  0.00000E+00  9.000E+00
     -24     2     4     4     0     0  1.195486993E+02  7.642250020E+01 -1.460230320E+02  2.190026040E+02  8.066675077E+01  0.00000E+00  9.000E+00
     -11     1     5     5     0     0  1.717820012E+02  5.278304143E+01 -2.458720166E+01  1.813825678E+02  2.477718555E-06  0.00000E+00  9.000E+00
      12     1     5     5     0     0  9.173710343E+01 -2.032752599E+01 -4.471455982E+01  1.040591001E+02  1.066240300E-06  0.00000E+00  9.000E+00
      13     1     6     6     0     0  1.027731840E+02  5.359361608E+01 -1.508780879E+02  1.902598235E+02  1.907348633E-06  0.00000E+00  9.000E+00
     -14     1     6     6     0     0  1.677551532E+01  2.282888412E+01  4.855055966E+00  2.874278053E+01  5.397430145E-07  0.00000E+00  9.000E+00
       5     1     3     3   502     0  1.397838060E+01 -2.714989999E+01  3.044877977E+01  4.338436220E+01  4.750000000E+00  0.00000E+00  9.000E+00
      -5     1     4     4     0   504 -2.688486827E+00 -4.525035215E+01 -6.026263906E+01  7.555772957E+01  4.750000000E+00  0.00000E+00  9.000E+00
      21     1     1     2   503   512 -3.943576977E+02 -3.647776350E+01  2.157827385E+02  4.510108770E+02  6.607249480E-06  0.00000E+00  9.000E+00
</event>
<event>
     13  10001  1.00000E+00  2.26843E+01 -1.00000E+00  1.66153E-01
      21    -1     0     0   511   503  0.000000000E+00  0.000000000E+00  1.350988056E+02  1.350988056E+02  0.000000000E+00  0.00000E+00  9.000E+00
      21    -1     0     0   503   504  0.000000000E+00  0.000000000E+00 -5.758779174E+02  5.758779174E+02  0.000000000E+00  0.00000E+00  9.000E+00
       6     2     1     2   502     0 -2.285356404E+01 -2.925845047E+01 -4.746031876E+02  5.061724291E+02  1.720000000E+02  0.00000E+00  9.000E+00
      -6     2     1     2     0   504  1.077004721E+01  4.845650411E+01  2.652132924E+01  1.809734998E+02  1.720000000E+02  0.00000E+00  9.000E+00
      24     2     3     3     0     0 -5.476196417E+01  1.899485366E+01 -3.977497472E+02  4.098628182E+02  8.014356575E+01  0.00000E+00  9.000E+00
     -24     2     4     4     0     0 -3.645614799E+01  6.444137471E+01 -2.153117163E+01  1.115657556E+02  8.063240651E+01  0.00000E+00  9.000E+00
     -11     1     5     5     0     0 -4.908550592E+01 -1.022809026E+01 -1.137906972E+02  1.243475915E+02  2.697398305E-06  0.00000E+00  9.000E+00
      12     1     5     5     0     0 -5.676458250E+00  2.922294392E+01 -2.839590500E+02  2.855152267E+02  5.394796609E-06  0.00000E+00  9.000E+00
      13     1     6     6     0     0  1.405757598E+01 -1.061262984E+01 -1.029340400E+01  2.040091960E+01  1.685873940E-07  0.00000E+00  9.000E+00
     -14     1     6     6     0     0 -5.051372398E+01  7.505400455E+01 -1.123776764E+01  9.116483604E+01  2.223820461E-06  0.00000E+00  9.000E+00
       5     1     3     3   502     0  3.190840014E+01 -4.825330413E+01 -7.685344038E+01  9.630961092E+01  4.750000000E+00  0.00000E+00  9.000E+00
      -5     1     4     4     0   504  4.722619520E+01 -1.598487060E+01  4.805250087E+01  6.940774410E+01  4.750000000E+00  0.00000E+00  9.000E+00
      21     1     1     2   511   502  1.208351683E+01 -1.919805364E+01  7.302746527E+00  2.383079414E+01  8.429369702E-08  0.00000E+00  9.000E+00
</event>
<event>
     13  10001  1.00000E+00  1.12282E+01 -1.00000E+00  1.95961E-01
       1    -1     0     0   502     0  0.000000000E+00  0.000000000E+00  8.003791561E+02  8.003791561E+02  0.000000000E+00  0.00000E+00  9.000E+00
      21    -1     0     0   503   504  0.000000000E+00  0.000000000E+00 -3.106463340E+02  3.106463340E+02  0.000000000E+00  0.00000E+00  9.000E+00
       6     2     1     2   502     0 -2.628956493E+02  2.792594144E+02  3.700615377E+02  5.600263250E+02  1.720000000E+02  0.00000E+00  9.000E+00
      -6     2     1     2     0   504  2.738190663E+02 -2.766611074E+02 -5.230965044E+00  4.255932476E+02  1.720000000E+02  0.00000E+00  9.000E+00
      24     2     3     3     0     0 -6.742237447E+01  1.088652315E+02  1.976276043E+02  2.485780907E+02  7.960516303E+01  0.00000E+00  9.000E+00
     -24     2     4     4     0     0  7.901762777E+01 -1.541082622E+02  2.424880963E+01  1.935190786E+02  8.287633573E+01  0.00000E+00  9.000E+00
     -11     1     5     5     0     0 -7.063550753E+01  3.902990586E+01  1.117419771E+02  1.378367800E+02  1.348699152E-06  0.00000E+00  9.000E+00
      12     1     5     5     0     0  3.213133057E+00  6.983532568E+01  8.588562715E+01  1.107413107E+02  0.000000000E+00  0.00000E+00  9.000E+00
      13     1     6     6     0     0 -1.647004438E+01 -1.684477399E+01 -4.130382418E+00  2.391796044E+01  4.730972012E-07  0.00000E+00  9.000E+00
     -14     1     6     6     0     0  9.548767215E+01 -1.372634882E+02  2.837919205E+01  1.696011181E+02  3.960906917E-06  0.00000E+00  9.000E+00
       5     1     3     3   502     0 -1.954732748E+02  1.703941829E+02  1.724339334E+02  3.114482343E+02  4.750000000E+00  0.00000E+00  9.000E+00
      -5     1     4     4     0   504  1.948014385E+02 -1.225528451E+02 -2.947977468E+01  2.320741690E+02  4.750000000E+00  0.00000E+00  9.000E+00
       1     1     1     2   503     0 -1.092341697E+01 -2.598307070E+00  1.249022495E+02  1.254059176E+02  1.348699152E-06  0.00000E+00  9.000E+00
</event>
<event>
     13  10001  1.00000E+00  5.62265E+00 -1.00000E+00  2.38709E-01
      21    -1     0     0   502   511  0.000000000E+00  0.000000000E+00  2.129951622E+02  2.129951622E+02  0.000000000E+00  0.00000E+00  9.000E+00
      21    -1     0     0   503   504  0.000000000E+00  0.000000000E+00 -2.867982554E+02  2.867982554E+02  0.000000000E+00  0.00000E+00  9.000E+00
       6     2     1     2   502     0  6.968836413E+01  2.727897974E+01  4.744598566E+01  1.934831579E+02  1.720000000E+02  0.00000E+00  9.000E+00
      -6     2     1     2     0   504 -6.507162123E+01 -2.406963710E+01 -1.733744121E+02  2.538825518E+02  1.720000000E+02  0.00000E+00  9.000E+00
      24     2     3     3     0     0  6.706368280E+01  7.408984396E+01  6.361433575E+01  1.436622385E+02  8.127245867E+01  0.00000E+00  9.000E+00
     -24     2     4     4     0     0 -4.698159656E+01  2.635233651E+01 -2.415490194E+01  9.526776958E+01  7.477146901E+01  0.00000E+00  9.000E+00
     -11     1     5     5     0     0  5.210958886E+01  6.869598223E+01  8.896130340E+00  8.668153414E+01  1.430511475E-06  0.00000E+00  9.000E+00
      12     1     5     5     0     0  1.495409394E+01  5.393861728E+00  5.471820541E+01  5.698070439E+01  1.784161275E-06  0.00000E+00  9.000E+00
      13     1     6     6     0     0 -4.003670330E+01 -1.088409596E+01 -3.667306245E+01  5.537431413E+01  1.066240300E-06  0.00000E+00  9.000E+00
     -14     1     6     6     0     0 -6.944893261E+00  3.723643247E+01  1.251816051E+01  3.989345545E+01  5.591411304E-07  0.00000E+00  9.000E+00
       5     1     3     3   502     0  2.624681328E+00 -4.681086422E+01 -1.616835008E+01  4.982091936E+01  4.750000000E+00  0.00000E+00  9.000E+00
      -5     1     4     4     0   504 -1.809002467E+01 -5.042197361E+01 -1.492195102E+02  1.586147822E+02  4.750000000E+00  0.00000E+00  9.000E+00
      21     1     1     2   503   511 -4.616742902E+00 -3.209342645E+00  5.212533324E+01  5.242770795E+01  6.743495762E-07  0.00000E+00  9.000E+00
</event>
<event>
     13  10001  1.00000E+00  7.57657E+00 -1.00000E+00  2.18085E-01
      21    -1     0     0   503   512  0.000000000E+00  0.000000000E+00  3.467314690E+02  3.467314690E+02  0.000000000E+00  0.00000E+00  9.000E+00
      21    -1     0     0   502   503  0.000000000E+00  0.000000000E+00 -1.439588962E+02  1.439588962E+02  0.000000000E+00  0.00000E+00  9.000E+00
       6     2     1     2   502     0 -4.176333656E+01 -1.049515906E+02  3.998929276E+01  2.096238445E+02  1.720000000E+02  0.00000E+00  9.000E+00
      -6     2     1     2     0   504  3.449513033E+01  1.028120580E+02  1.168587826E+02  2.345212322E+02  1.720000000E+02  0.00000E+00  9.000E+00
      24     2     3     3     0     0 -4.209924875E+01 -1.073648794E+02  8.478287808E+01  1.645132627E+02  8.109816973E+01  0.00000E+00  9.000E+00
     -24     2     4     4     0     0  1.855833801E+01  3.181929248E+01  1.338605009E+02  1.596508440E+02  7.882181806E+01  0.00000E+00  9.000E+00
     -11     1     5     5     0     0 -2.708653902E+01 -4.054014802E+01 -7.772872863E+00  4.937207460E+01  6.307962682E-07  0.00000E+00  9.000E+00
      12     1     5     5     0     0 -1.501270973E+01 -6.682473135E+01  9.255575095E+01  1.151411881E+02  1.907348633E-06  0.00000E+00  9.000E+00
      13     1     6     6     0     0 -4.459886258E+00 -1.861426871E+01  5.633662032E+00  1.995293796E+01  5.264139692E-07  0.00000E+00  9.000E+00
     -14     1     6     6     0     0  2.301822427E+01  5.043356120E+01  1.282268389E+02  1.396979061E+02  3.303624740E-06  0.00000E+00  9.000E+00
       5     1     3     3   502     0  3.359121909E-01  2.413288807E+00 -4.479358532E+01  4.511058175E+01  4.750000000E+00  0.00000E+00  9.000E+00
      -5     1     4     4     0   504  1.593679232E+01  7.099276555E+01 -1.700171828E+01  7.487038823E+01  4.750000000E+00  0.00000E+00  9.000E+00
      21     1     1     2   504   512  7.268206228E+00  2.139532532E+00  4.592449738E+01  4.654528849E+01  0.000000000E+00  0.00000E+00  9.000E+00
</event>
<event>
     13  10001  1.00000E+00  1.47587E+01 -1.00000E+00  1.83140E-01
      21    -1     0     0   503   504  0.000000000E+00  0.000000000E+00  2.202215824E+02  2.202215824E+02  0.000000000E+00  0.00000E+00  9.000E+00
      21    -1     0     0   511   503  0.000000000E+00  0.000000000E+00 -4.672597740E+02  4.672597740E+02  0.000000000E+00  0.00000E+00  9.000E+00
       6     2     1     2   502     0  6.419643004E+01 -8.109294403E+01 -3.716952165E+02  4.224199109E+02  1.720000000E+02  0.00000E+00  9.000E+00
      -6     2     1     2     0   504 -7.851742846E+01  7.752525951E+01  1.368301903E+02  2.459301799E+02  1.720000000E+02  0.00000E+00  9.000E+00
      24     2     3     3     0     0 -2.088109481E+01 -5.332280825E+01 -1.179177649E+02  1.532825424E+02  7.944555711E+01  0.00000E+00  9.000E+00
     -24     2     4     4     0     0  7.022950895E+00 -7.538009406E+00  8.003429171E+01  1.125088443E+02  7.840031099E+01  0.00000E+00  9.000E+00
     -11     1     5     5     0     0  1.294144512E+01 -5.987033766E+01 -9.036809201E+01  1.091711060E+02  1.348699152E-06  0.00000E+00  9.000E+00
      12     1     5     5     0     0 -3.382253994E+01  6.547529412E+00 -2.754967286E+01  4.411143643E+01  6.743495762E-07  0.00000E+00  9.000E+00
      13     1     6     6     0     0 -2.540844520E+01 -1.265304718E+01  2.723171005E+00  2.851498467E+01  2.920019320E-07  0.00000E+00  9.000E+00
     -14     1     6     6     0     0  3.243139610E+01  5.115037775E+00  7.731112071E+01  8.399385959E+01  1.907348633E-06  0.00000E+00  9.000E+00
       5     1     3     3   502     0  8.507752485E+01 -2.777013578E+01 -2.537774516E+02  2.691373685E+02  4.750000000E+00  0.00000E+00  9.000E+00
      -5     1     4     4     0   504 -8.554037936E+01  8.506326892E+01  5.679589855E+01  1.334213357E+02  4.750000000E+00  0.00000E+00  9.000E+00
      21     1     1     2   511   502  1.432099843E+01  3.567684521E+00 -1.217316541E+01  1.913126563E+01  1.685873940E-07  0.00000E+00  9.000E+00
</event>
<event>
     13  10001  1.00000E+00  6.39906E+01 -1.00000E+00  1.36004E-01
      21    -1     0     0   503   504  0.000000000E+00  0.000000000E+00  4.574955636E+02  4.574955636E+02  0.000000000E+00  0.00000E+00  9.000E+00
       2    -1     0     0   502     0  0.000000000E+00  0.000000000E+00 -1.581498052E+03  1.581498052E+03  0.000000000E+00  0.00000E+00  9.000E+00
       6     2     1     2   502     0 -6.810267146E+00  6.202292322E+01 -2.287502972E+02  2.929230636E+02  1.720000000E+02  0.00000E+00  9.000E+00
      -6     2     1     2     0   504  5.285511970E+01 -1.064601791E+02  3.988829320E+02  4.503543348E+02  1.720000000E+02  0.00000E+00  9.000E+00
      24     2     3     3     0     0 -6.717648214E+01  3.534340164E+01 -1.786976052E+02  2.099549296E+02  7.991497095E+01  0.00000E+00  9.000E+00
     -24     2     4     4     0     0  5.436447881E+01 -1.357348791E+02  2.638954566E+02  3.121390417E+02  8.006569406E+01  0.00000E+00  9.000E+00
     -11     1     5     5     0     0 -6.657905614E+01  4.621386007E+00 -6.883858606E+01  9.587950175E+01  0.000000000E+00  0.00000E+00  9.000E+00
      12     1     5     5     0     0 -5.974260031E-01  3.072201563E+01 -1.098590191E+02  1.140754279E+02  2.697398305E-06  0.00000E+00  9.000E+00
      13     1     6     6     0     0 -2.029034137E+01 -3.799700179E+01  8.093026128E+01  9.167975397E+01  1.348699152E-06  0.00000E+00  9.000E+00
     -14     1     6     6     0     0  7.465482017E+01 -9.773787732E+01  1.829651953E+02  2.204592877E+02  2.697398305E-06  0.00000E+00  9.000E+00
       5     1     3     3   502     0  6.036621499E+01  2.667952158E+01 -5.005269202E+01  8.296813402E+01  4.750000000E+00  0.00000E+00  9.000E+00
      -5     1     4     4     0   504 -1.509359108E+00  2.927470004E+01  1.349874755E+02  1.382152931E+02  4.750000000E+00  0.00000E+00  9.000E+00
       2     1     1     2   503     0 -4.604485255E+01  4.443725585E+01 -1.294135124E+03  1.295716218E+03  0.000000000E+00  0.00000E+00  9.000E+00
</event>
<event>
     13  10001  1.00000E+00  7.11871E+01 -1.00000E+00  1.33529E-01
      21    -1     0     0   502   503  0.000000000E+00  0.000000000E+00  1.105265999E+03  1.105265999E+03  0.000000000E+00  0.00000E+00  9.000E+00
      21    -1     0     0   503   511  0.000000000E+00  0.000000000E+00 -5.838876933E+01  5.838876933E+01  0.000000000E+00  0.00000E+00  9.000E+00
       6     2     1     2   502     0 -1.114467628E+02 -9.656121563E+01  4.070104758E+02  4.658175359E+02  1.720000000E+02  0.00000E+00  9.000E+00
      -6     2     1     2     0   504  4.205872874E+01  8.065831831E+01  5.486508117E+02  5.821309252E+02  1.720000000E+02  0.00000E+00  9.000E+00
      24     2     3     3     0     0 -2.157847592E+01 -9.736018286E+00  8.130521239E+01  1.169315875E+02  8.063521506E+01  0.00000E+00  9.000E+00
     -24     2     4     4     0     0 -1.853919078E+00 -6.524416937E+00  1.621913430E+02  1.835049935E+02  8.556895403E+01  0.00000E+00  9.000E+00
     -11     1     5     5     0     0 -4.762324573E+01 -1.653542580E+01  7.308785867E+01  8.878754938E+01  9.536743164E-07  0.00000E+00  9.000E+00
      12     1     5     5     0     0  2.604476981E+01  6.799407514E+00  8.217353718E+00  2.814403807E+01  7.348554138E-07  0.00000E+00  9.000E+00
      13     1     6     6     0     0 -8.250392055E+00  3.380640566E+01  1.193514046E+02  1.243209549E+02  1.348699152E-06  0.00000E+00  9.000E+00
     -14     1     6     6     0     0  6.396472977E+00 -4.033082260E+01  4.283993832E+01  5.918403867E+01  0.000000000E+00  0.00000E+00  9.000E+00
       5     1     3     3   502     0 -8.986828684E+01 -8.682519734E+01  3.257052634E+02  3.488859484E+02  4.750000000E+00  0.00000E+00  9.000E+00
      -5     1     4     4     0   504  4.391264782E+01  8.718273524E+01  3.864594687E+02  3.986259317E+02  4.750000000E+00  0.00000E+00  9.000E+00
      21     1     1     2   504   511  6.938803402E+01  1.590289732E+01  9.121594190E+01  1.157063069E+02  1.348699152E-06  0.00000E+00  9.000E+00
</event>
<event>
     13  10001  1.00000E+00  3.82291E+01 -1.00000E+00  1.49434E-01
      21    -1     0     0   502   503  0.000000000E+00  0.000000000E+00  3.039376001E+02  3.039376001E+02  0.000000000E+00  0.00000E+00  9.000E+00
       2    -1     0     0   503     0  0.000000000E+00  0.000000000E+00 -7.396555310E+02  7.396555310E+02  0.000000000E+00  0.00000E+00  9.000E+00
       6     2     1     2   502     0  8.491996619E+01  6.830528068E+01 -3.124353732E+02  3.729301201E+02  1.720000000E+02  0.00000E+00  9.000E+00
      -6     2     1     2     0   504 -8.072007516E+01 -1.063029748E+02  2.291953972E+02  3.161179892E+02  1.720000000E+02  0.00000E+00  9.000E+00
      24     2     3     3     0     0  4.070339437E+01  4.960947082E+01 -6.694785408E+01  1.227475406E+02  8.041814251E+01  0.00000E+00  9.000E+00
     -24     2     4     4     0     0 -9.870939200E+01 -1.135254287E+02  2.394068178E+02  2.936989132E+02  7.944721620E+01  0.00000E+00  9.000E+00
     -11     1     5     5     0     0  1.495064781E+01 -2.115036529E+01 -2.735835237E+01  3.767411932E+01  3.371747881E-07  0.00000E+00  9.000E+00
      12     1     5     5     0     0  2.575274656E+01  7.075983611E+01 -3.958950171E+01  8.507342127E+01  1.507891493E-06  0.00000E+00  9.000E+00
      13     1     6     6     0     0 -4.112707429E+01 -1.010105499E+02  1.767174056E+02  2.076622471E+02  2.697398305E-06  0.00000E+00  9.000E+00
     -14     1     6     6     0     0 -5.758231771E+01 -1.251487875E+01  6.268941220E+01  8.603666605E+01  1.784161275E-06  0.00000E+00  9.000E+00
       5     1     3     3   502     0  4.421657182E+01  1.869580986E+01 -2.454875192E+02  2.501825795E+02  4.750000000E+00  0.00000E+00  9.000E+00
      -5     1     4     4     0   504  1.798931684E+01  7.222453895E+00 -1.021142056E+01  2.241907604E+01  4.750000000E+00  0.00000E+00  9.000E+00
       2     1     1     2   504     0 -4.199891036E+00  3.799769410E+01 -3.524779548E+02  3.545450218E+02  0.000000000E+00  0.00000E+00  9.000E+00
</event>
<event>
     13  10001  1.00000E+00  5.80560E+01 -1.00000E+00  1.38349E-01
      21    -1     0     0   503   504  0.000000000E+00  0.000000000E+00  1.104010748E+02  1.104010748E+02  0.000000000E+00  0.00000E+00  9.000E+00
       2    -1     0     0   502     0  0.000000000E+00  0.000000000E+00 -8.866712309E+02  8.866712309E+02  0.000000000E+00  0.00000E+00  9.000E+00
       6     2     1     2   502     0  7.271168233E+01  1.094863555E+02 -6.359657407E+02  6.717966018E+02  1.720000000E+02  0.00000E+00  9.000E+00
      -6     2     1     2     0   504 -1.126993153E+02 -6.739732821E+01 -5.707240626E+01  2.237963250E+02  1.720000000E+02  0.00000E+00  9.000E+00
      24     2     3     3     0     0  9.478086691E+00  2.486925029E+01 -4.508566847E+02  4.586148314E+02  7.967119724E+01  0.00000E+00  9.000E+00
     -24     2     4     4     0     0 -1.296173558E+02 -1.038031671E+02 -5.836369821E+01  1.833508662E+02  5.133675526E+01  0.00000E+00  9.000E+00
     -11     1     5     5     0     0  3.027534051E+01  2.936142711E+01 -1.222558104E+02  1.293258397E+02  0.000000000E+00  0.00000E+00  9.000E+00
      12     1     5     5     0     0 -2.079725382E+01 -4.492176815E+00 -3.286008744E+02  3.292889917E+02  0.000000000E+00  0.00000E+00  9.000E+00
      13     1     6     6     0     0 -2.970336222E+01 -2.238262373E+01 -3.744403528E+01  5.277620060E+01  1.066240300E-06  0.00000E+00  9.000E+00
     -14     1     6     6     0     0 -9.991399360E+01 -8.142054335E+01 -2.091966292E+01  1.305746656E+02  3.903080355E-06  0.00000E+00  9.000E+00
       5     1     3     3   502     0  6.323359564E+01  8.461710522E+01 -1.851090559E+02  2.131817703E+02  4.750000000E+00  0.00000E+00  9.000E+00
      -5     1     4     4     0   504  1.691804055E+01  3.640583887E+01  1.291291949E+00  4.044545877E+01  4.750000000E+00  0.00000E+00  9.000E+00
       2     1     1     2   503     0  3.998763294E+01 -4.208902731E+01 -8.323200913E+01  1.014793790E+02  1.907348633E-06  0.00000E+00  9.000E+00
</event>
<event>
     13  10001  1.00000E+00  3.35086E+01 -1.00000E+00  1.53321E-01
      21    -1     0     0   502   503  0.000000000E+00  0.000000000E+00  1.694852748E+02  1.694852748E+02  0.000000000E+00  0.00000E+00  9.000E+00
      21    -1     0     0   511   504  0.000000000E+00  0.000000000E+00 -4.254160502E+02  4.254160502E+02  0.000000000E+00  0.00000E+00  9.000E+00
       6     2     1     2   502     0 -8.481866231E+01  7.726281581E+01 -1.770485593E+02  2.722020215E+02  1.720000000E+02  0.00000E+00  9.000E+00
      -6     2     1     2     0   504  9.985093344E+01 -1.072103952E+02  1.157518035E+01  2.262349720E+02  1.720000000E+02  0.00000E+00  9.000E+00
      24     2     3     3     0     0 -4.941643971E+01  1.171235721E+02 -1.491524884E+02  2.118451617E+02  8.044869211E+01  0.00000E+00  9.000E+00
     -24     2     4     4     0     0 -1.476133611E+01 -2.903347135E+01  3.120795983E+01  8.603649737E+01  7.326324195E+01  0.00000E+00  9.000E+00
     -11     1     5     5     0     0 -4.910361994E+01  1.010373066E+02 -7.291053957E+01  1.339240441E+02  2.523185073E-06  0.00000E+00  9.000E+00
      12     1     5     5     0     0 -3.128197702E-01  1.608626553E+01 -7.624194886E+01  7.792111755E+01  9.536743164E-07  0.00000E+00  9.000E+00
      13     1     6     6     0     0 -2.191701955E+01 -4.908399938E+01  7.670498097E+00  5.429945931E+01  7.396741894E-07  0.00000E+00  9.000E+00
     -14     1     6     6     0     0  7.155683447E+00  2.005052803E+01  2.353746174E+01  3.173703806E+01  3.371747881E-07  0.00000E+00  9.000E+00
       5     1     3     3   502     0 -3.540222260E+01 -3.986075633E+01 -2.789607084E+01  6.035685983E+01  4.750000000E+00  0.00000E+00  9.000E+00
      -5     1     4     4     0   504  1.146122695E+02 -7.817692381E+01 -1.963277949E+01  1.401984746E+02  4.750000000E+00  0.00000E+00  9.000E+00
      21     1     1     2   511   503 -1.503227113E+01  2.994757935E+01 -9.045739649E+01  9.646433157E+01  1.348699152E-06  0.00000E+00  9.000E+00
</event>
<event>
     13  10001  1.00000E+00  8.32888E+00 -1.00000E+00  2.12296E-01
      21    -1     0     0   503   512  0.000000000E+00  0.000000000E+00  1.018047229E+02  1.018047229E+02  0.000000000E+00  0.00000E+00  9.000E+00
      21    -1     0     0   502   503  0.000000000E+00  0.000000000E+00 -5.837001365E+02  5.837001365E+02  0.000000000E+00  0.00000E+00  9.000E+00
       6     2     1     2   502     0 -1.017949462E+02  7.456859754E+01 -3.667981794E+02  4.243201518E+02  1.720000000E+02  0.00000E+00  9.000E+00
      -6     2     1     2     0   504  1.009951892E+02 -6.627820628E+01 -1.278057246E+02  2.459901057E+02  1.720000000E+02  0.00000E+00  9.000E+00
      24     2     3     3     0     0 -5.343051152E+01  1.041078659E+02 -1.771622777E+02  2.263402927E+02  7.842313521E+01  0.00000E+00  9.000E+00
     -24     2     4     4     0     0  9.709113242E+01  7.417795020E+00 -4.187234547E+01  1.326170471E+02  7.970116811E+01  0.00000E+00  9.000E+00
     -11     1     5     5     0     0 -4.478338851E+01  8.381026600E+01 -7.289379032E+01  1.197631715E+02  1.907348633E-06  0.00000E+00  9.000E+00
      12     1     5     5     0     0 -8.647123005E+00  2.029759990E+01 -1.042684874E+02  1.065771212E+02  1.348699152E-06  0.00000E+00  9.000E+00
      13     1     6     6     0     0  1.729279873E+01 -2.340150966E+01  1.205346189E+01  3.149535658E+01  7.907449699E-07  0.00000E+00  9.000E+00
     -14     1     6     6     0     0  7.979833369E+01  3.081930468E+01 -5.392580736E+01  1.011216906E+02  1.784161275E-06  0.00000E+00  9.000E+00
       5     1     3     3   502     0 -4.836443473E+01 -2.953926836E+01 -1.896359016E+02  1.979798591E+02  4.750000000E+00  0.00000E+00  9.000E+00
      -5     1     4     4     0   504  3.904056794E+00 -7.369600130E+01 -8.593337910E+01  1.133730586E+02  4.750000000E+00  0.00000E+00  9.000E+00
      21     1     1     2   504   512  7.997570366E-01 -8.290391261E+00  1.270849033E+01  1.519460184E+01  4.129530925E-07  0.00000E+00  9.000E+00
</event>
<event>
     13  10001  1.00000E+00  4.16782E+01 -1.00000E+00  1.46995E-01
       1    -1     0     0   503     0  0.000000000E+00  0.000000000E+00  1.144656657E+03  1.144656657E+03  0.000000000E+00  0.00000E+00  9.000E+00
      21    -1     0     0   502   503  0.000000000E+00  0.000000000E+00 -5.309306491E+01  5.309306491E+01  0.000000000E+00  0.00000E+00  9.000E+00
       6     2     1     2   502     0 -2.894228041E+01 -7.371153346E+01  3.327416777E+02  3.828473192E+02  1.720000000E+02  0.00000E+00  9.000E+00
      -6     2     1     2     0   504  6.510567595E+01  9.443073171E+01  3.698878516E+02  4.237415897E+02  1.720000000E+02  0.00000E+00  9.000E+00
      24     2     3     3     0     0  3.600034070E+00 -3.414368914E+01  3.168980355E+02  3.290123860E+02  8.152320833E+01  0.00000E+00  9.000E+00
     -24     2     4     4     0     0  9.132578215E+01  1.100072916E+02  3.513322858E+02  3.877277770E+02  8.035204621E+01  0.00000E+00  9.000E+00
     -11     1     5     5     0     0 -2.864001665E+01 -1.230112735E+01  2.473303544E+02  2.492867275E+02  3.814697266E-06  0.00000E+00  9.000E+00
      12     1     5     5     0     0  3.224005072E+01 -2.184256179E+01  6.956768108E+01  7.972565853E+01  1.651812370E-06  0.00000E+00  9.000E+00
      13     1     6     6     0     0  6.307304490E+01  1.510160503E+01  1.466481302E+02  1.603494358E+02  2.697398305E-06  0.00000E+00  9.000E+00
     -14     1     6     6     0     0  2.825273725E+01  9.490568652E+01  2.046841556E+02  2.273783412E+02  4.672030912E-06  0.00000E+00  9.000E+00
       5     1     3     3   502     0 -3.254231448E+01 -3.956784432E+01  1.584364221E+01  5.383493322E+01  4.750000000E+00  0.00000E+00  9.000E+00
      -5     1     4     4     0   504 -2.622010619E+01 -1.557655985E+01  1.855556572E+01  3.601381269E+01  4.750000000E+00  0.00000E+00  9.000E+00
       1     1     1     2   504     0 -3.616339555E+01 -2.071919825E+01  3.889340626E+02  3.911608127E+02  0.000000000E+00  0.00000E+00  9.000E+00
</event>
<event>
     13  10001  1.00000E+00  5.08488E+01 -1.00000E+00  1.41678E-01
       2    -1     0     0   503     0  0.000000000E+00  0.000000000E+00  4.133515393E+02  4.133515393E+02  0.000000000E+00  0.00000E+00  9.000E+00
      21    -1     0     0   502   503  0.000000000E+00  0.000000000E+00 -3.280539676E+02  3.280539676E+02  0.000000000E+00  0.00000E+00  9.000E+00
       6     2     1     2   502     0 -1.566626901E+01 -8.850691820E+01 -2.588175811E+02  3.234956674E+02  1.720000000E+02  0.00000E+00  9.000E+00
      -6     2     1     2     0   504 -2.950420562E+01  6.515679933E+01  2.717191439E+02  3.294407380E+02  1.720000000E+02  0.00000E+00  9.000E+00
      24     2     3     3     0     0  7.437888981E+00 -7.104679129E+00 -9.931383781E+01  1.428741480E+02  1.021958176E+02  0.00000E+00  9.000E+00
     -24     2     4     4     0     0  9.977685851E+00 -1.519067445E+01  7.170285909E+01  1.102522050E+02  8.175535390E+01  0.00000E+00  9.000E+00
     -11     1     5     5     0     0 -1.538426761E+00 -2.571725339E+01  1.287285040E+01  2.880024577E+01  8.760057960E-07  0.00000E+00  9.000E+00
      12     1     5     5     0     0  8.976315742E+00  1.861257426E+01 -1.121866882E+02  1.140739023E+02  1.348699152E-06  0.00000E+00  9.000E+00
      13     1     6     6     0     0  5.446607833E+00 -4.654891587E+01  6.075338468E+01  7.672966086E+01  9.536743164E-07  0.00000E+00  9.000E+00
     -14     1     6     6     0     0  4.531078018E+00  3.135824142E+01  1.094947441E+01  3.352254410E+01  8.678567278E-07  0.00000E+00  9.000E+00
       5     1     3     3   502     0 -2.310415799E+01 -8.140223907E+01 -1.595037433E+02  1.806215194E+02  4.750000000E+00  0.00000E+00  9.000E+00
      -5     1     4     4     0   504 -3.948189147E+01  8.034747378E+01  2.000162848E+02  2.191885330E+02  4.750000000E+00  0.00000E+00  9.000E+00
       2     1     1     2   504     0  4.517047463E+01  2.335011887E+01  7.239600892E+01  8.846910159E+01  1.348699152E-06  0.00000E+00  9.000E+00
</event>
<event>
     13  10001  1.00000E+00  3.42270E+01 -1.00000E+00  1.52681E-01
       2    -1     0     0   503     0  0.000000000E+00  0.000000000E+00  2.377050721E+02  2.377050721E+02  0.000000000E+00  0.00000E+00  9.000E+00
      21    -1     0     0   502   503  0.000000000E+00  0.000000000E+00 -5.453883748E+02  5.453883748E+02  0.000000000E+00  0.00000E+00  9.000E+00
       6     2     1     2   502     0 -9.600604000E+01  2.177807542E+01 -4.580293399E+02  4.990654471E+02  1.720000000E+02  0.00000E+00  9.000E+00
      -6     2     1     2     0   504  1.125824312E+02  8.167043018E+00  1.375934881E+02  2.475024694E+02  1.720000000E+02  0.00000E+00  9.000E+00
      24     2     3     3     0     0 -6.113877522E+01 -2.524784607E+01 -4.100187014E+02  4.232053960E+02  8.131462427E+01  0.00000E+00  9.000E+00
     -24     2     4     4     0     0  2.709783536E+01  1.102266536E+01  1.370769933E+02  1.618368405E+02  8.090283692E+01  0.00000E+00  9.000E+00
     -11     1     5     5     0     0 -1.248494474E+01 -4.906252093E+01 -2.027473463E+02  2.089724652E+02  2.697398305E-06  0.00000E+00  9.000E+00
      12     1     5     5     0     0 -4.865383048E+01  2.381467486E+01 -2.072713552E+02  2.142329308E+02  3.814697266E-06  0.00000E+00  9.000E+00
      13     1     6     6     0     0  2.832658618E+01 -5.684122129E+00  5.765263402E+00  2.946087220E+01  5.717076687E-07  0.00000E+00  9.000E+00
     -14     1     6     6     0     0 -1.228750811E+00  1.670678749E+01  1.313117299E+02  1.323759683E+02  2.697398305E-06  0.00000E+00  9.000E+00
       5     1     3     3   502     0 -3.486726478E+01  4.702592149E+01 -4.801063844E+01  7.586005107E+01  4.750000000E+00  0.00000E+00  9.000E+00
      -5     1     4     4     0   504  8.548459588E+01 -2.855622341E+00  5.164947743E-01  8.566562892E+01  4.750000000E+00  0.00000E+00  9.000E+00
       2     1     1     2   504     0 -1.657639125E+01 -2.994511844E+01  1.275254909E+01  3.652553043E+01  6.743495762E-07  0.00000E+00  9.000E+00
</event>
<event>
     13  10001  1.00000E+00  1.43126E+02 -1.00000E+00  1.19339E-01
      21    -1     0     0   502   503  0.000000000E+00  0.000000000E+00  2.458304227E+02  2.458304227E+02  0.000000000E+00  0.00000E+00  9.000E+00
       1    -1     0     0   503     0  0.000000000E+00  0.000000000E+00 -5.590310863E+02  5.590310863E+02  0.000000000E+00  0.00000E+00  9.000E+00
       6     2     1     2   502     0 -1.402277355E-01  1.090593754E+02 -2.424315361E+02  3.166244096E+02  1.720000000E+02  0.00000E+00  9.000E+00
      -6     2     1     2     0   504 -7.552888111E+01 -2.305471386E+02  4.926136774E+01  3.014419967E+02  1.720000000E+02  0.00000E+00  9.000E+00
      24     2     3     3     0     0  8.004316316E+00 -1.206803226E+01 -8.923925780E+01  1.211030063E+02  8.057658797E+01  0.00000E+00  9.000E+00
     -24     2     4     4     0     0 -1.185043514E+02 -1.695789879E+02  3.642794344E+01  2.256048968E+02  8.228158924E+01  0.00000E+00  9.000E+00
     -11     1     5     5     0     0 -2.736891226E+01 -2.308725010E+01 -1.640159004E+01  3.938388797E+01  8.259061849E-07  0.00000E+00  9.000E+00
      12     1     5     5     0     0  3.537322858E+01  1.101921785E+01 -7.283766776E+01  8.171911837E+01  9.536743164E-07  0.00000E+00  9.000E+00
      13     1     6     6     0     0 -7.297184141E+01 -1.171608401E+02 -1.551002247E+01  1.388960507E+02  2.158972058E-06  0.00000E+00  9.000E+00
     -14     1     6     6     0     0 -4.553250999E+01 -5.241814782E+01  5.193796590E+01  8.670884608E+01  2.523185073E-06  0.00000E+00  9.000E+00
       5     1     3     3   502     0 -8.144544052E+00  1.211274076E+02 -1.531922783E+02  1.955214032E+02  4.750000000E+00  0.00000E+00  9.000E+00
      -5     1     4     4     0   504  4.297547029E+01 -6.096815066E+01  1.283342430E+01  7.583709990E+01  4.750000000E+00  0.00000E+00  9.000E+00
       1     1     1     2   504     0  7.566910884E+01  1.214877632E+02 -1.200304953E+02  1.867951028E+02  1.348699152E-06  0.00000E+00  9.000E+00
</event>
<event>
     13  10001  1.00000E+00  1.10947E+01 -1.00000E+00  1.96564E-01
      -2    -1     0     0     0   512  0.000000000E+00  0.000000000E+00  1.424331960E+02  1.424331960E+02  0.000000000E+00  0.00000E+00  9.000E+00
       2    -1     0     0   511     0  0.000000000E+00  0.000000000E+00 -2.901161220E+02  2.901161220E+02  0.000000000E+00  0.00000E+00  9.000E+00
       6     2     1     2   502     0  4.053755289E+01 -7.060940658E-01  2.155599693E+01  1.780237421E+02  1.720000000E+02  0.00000E+00  9.000E+00
      -6     2     1     2     0   512 -4.202956852E+01  1.170000152E+01 -1.501593828E+02  2.324547589E+02  1.720000000E+02  0.00000E+00  9.000E+00
      24     2     3     3     0     0  2.527576068E+01 -6.627027740E+01  3.419685893E+01  1.093656157E+02  7.589992745E+01  0.00000E+00  9.000E+00
     -24     2     4     4     0     0 -2.098887111E+01 -5.364537167E+01 -1.228534100E+02  1.584216082E+02  8.176849628E+01  0.00000E+00  9.000E+00
     -11     1     5     5     0     0  1.315237342E+01  1.968845100E+00  3.769252733E+01  3.996983731E+01  4.768371582E-07  0.00000E+00  9.000E+00
      12     1     5     5     0     0  1.212338727E+01 -6.823912250E+01 -3.495668402E+00  6.939577837E+01  5.945544643E-07  0.00000E+00  9.000E+00
      13     1     6     6     0     0  1.298970809E+01 -5.916046665E+01 -5.273782270E+01  8.031171317E+01  1.507891493E-06  0.00000E+00  9.000E+00
     -14     1     6     6     0     0 -3.397857920E+01  5.515094979E+00 -7.011558733E+01  7.810989504E+01  1.651812370E-06  0.00000E+00  9.000E+00
       5     1     3     3   502     0  1.526179220E+01  6.556418333E+01 -1.264086200E+01  6.865812646E+01  4.750000000E+00  0.00000E+00  9.000E+00
      -5     1     4     4     0   512 -2.104069741E+01  6.534537318E+01 -2.730597281E+01  7.403315065E+01  4.750000000E+00  0.00000E+00  9.000E+00
      21     1     1     2   511   502  1.492015632E+00 -1.099390745E+01 -1.907954007E+01  2.207081695E+01  2.384185791E-07  0.00000E+00  9.000E+00
</event>
<event>
     13  10001  1.00000E+00  2.57772E+01 -1.00000E+00  1.61711E-01
      21    -1     0     0   502   512  0.000000000E+00  0.000000000E+00  4.714144710E+02  4.714144710E+02  0.000000000E+00  0.00000E+00  9.000E+00
      21    -1     0     0   503   504  0.000000000E+00  0.000000000E+00 -1.433843954E+02  1.433843954E+02  0.000000000E+00  0.00000E+00  9.000E+00
       6     2     1     2   502     0  3.143089772E+01  1.135289171E+02 -9.335807037E-01  2.084744299E+02  1.720000000E+02  0.00000E+00  9.000E+00
      -6     2     1     2     0   504 -8.172057870E+00 -1.246415288E+02  2.887039649E+02  3.585195567E+02  1.720000000E+02  0.00000E+00  9.000E+00
      24     2     3     3     0     0  7.002267792E+01  1.193504115E+02  2.704522732E+01  1.602189484E+02  7.609842939E+01  0.00000E+00  9.000E+00
     -24     2     4     4     0     0 -8.428312994E+00 -4.822638862E+01  4.692120579E+01  1.049040911E+02  8.004028835E+01  0.00000E+00  9.000E+00
     -11     1     5     5     0     0 -7.613530293E+00  5.139017214E+01 -4.966165749E+00  5.218791468E+01  1.516115349E-06  0.00000E+00  9.000E+00
      12     1     5     5     0     0  7.763620821E+01  6.796023935E+01  3.201139307E+01  1.080310337E+02  2.078484985E-06  0.00000E+00  9.000E+00
      13     1     6     6     0     0 -2.043896589E+01  7.380530640E+00 -1.044672966E+01  2.411136080E+01  9.461944024E-07  0.00000E+00  9.000E+00
     -14     1     6     6     0     0  1.201065289E+01 -5.560691926E+01  5.736793545E+01  8.079273031E+01  6.743495762E-07  0.00000E+00  9.000E+00
       5     1     3     3   502     0 -3.859178019E+01 -5.821494424E+00 -2.797880803E+01  4.825548150E+01  4.750000000E+00  0.00000E+00  9.000E+00
      -5     1     4     4     0   504  2.562551236E-01 -7.641514015E+01  2.417827591E+02  2.536154656E+02  4.750000000E+00  0.00000E+00  9.000E+00
      21     1     1     2   503   512 -2.325883985E+01  1.111261171E+01  4.025969147E+01  4.780487974E+01  6.743495762E-07  0.00000E+00  9.000E+00
</event>
<event>
     13  10001  1.00000E+00  1.11514E+01 -1.00000E+00  1.96307E-01
       2    -1     0     0   511     0  0.000000000E+00  0.000000000E+00  4.581997302E+02  4.581997302E+02  0.000000000E+00  0.00000E+00  9.000E+00
      -2    -1     0     0     0   512  0.000000000E+00  0.000000000E+00 -2.159569827E+02  2.159569827E+02  0.000000000E+00  0.00000E+00  9.000E+00
       6     2     1     2   502     0  1.474871114E+02 -1.187130028E+02  2.950588374E+02  3.904983260E+02  1.720000000E+02  0.00000E+00  9.000E+00
      -6     2     1     2     0   512 -1.383679744E+02  1.251313162E+02 -6.995291053E+01  2.632127511E+02  1.720000000E+02  0.00000E+00  9.000E+00
      24     2     3     3     0     0  1.487497558E+02 -8.013954827E+01  2.988310736E+02  3.514304628E+02  7.519655991E+01  0.00000E+00  9.000E+00
     -24     2     4     4     0     0 -1.517971750E+02  6.764303931E+01 -1.890210613E+01  1.850207276E+02  7.910383637E+01  0.00000E+00  9.000E+00
     -11     1     5     5     0     0  1.443718116E+02 -7.527498851E+01  2.272835871E+02  2.795842857E+02  4.672030912E-06  0.00000E+00  9.000E+00
      12     1     5     5     0     0  4.377944180E+00 -4.864559761E+00  7.154748649E+01  7.184617708E+01  9.536743164E-07  0.00000E+00  9.000E+00
      13     1     6     6     0     0 -1.343015598E+02  6.200232347E+01 -4.361667534E+01  1.542193614E+02  3.754619538E-06  0.00000E+00  9.000E+00
     -14     1     6     6     0     0 -1.749561519E+01  5.640715838E+00  2.471456921E+01  3.080136616E+01  5.840038640E-07  0.00000E+00  9.000E+00
       5     1     3     3   502     0 -1.262644364E+00 -3.857345455E+01 -3.772236178E+00  3.906786317E+01  4.750000000E+00  0.00000E+00  9.000E+00
      -5     1     4     4     0   512  1.342920054E+01  5.748827691E+01 -5.105080440E+01  7.819202350E+01  4.750000000E+00  0.00000E+00  9.000E+00
      21     1     1     2   511   502 -9.119136975E+00 -6.418313394E+00  1.713682054E+01  2.044563583E+01  0.000000000E+00  0.00000E+00  9.000E+00
</event>
<event>
     13  10001  1.00000E+00  1.51498E+01 -1.00000E+00  1.82004E-01
      21    -1     0     0   512   503  0.000000000E+00  0.000000000E+00  9.819057370E+01  9.819057370E+01  0.000000000E+00  0.00000E+00  9.000E+00
      21    -1     0     0   503   504  0.000000000E+00  0.000000000E+00 -7.105649320E+02  7.105649320E+02  0.000000000E+00  0.00000E+00  9.000E+00
       6     2     1     2   502     0  7.012200718E+01  1.478860013E+01 -8.543761886E+01  2.049863052E+02  1.720000000E+02  0.00000E+00  9.000E+00
      -6     2     1     2     0   504 -6.842468694E+01 -2.984302740E+01 -5.472205960E+02  5.784521802E+02  1.720000000E+02  0.00000E+00  9.000E+00
      24     2     3     3     0     0  1.044874197E+02 -2.257681173E+01 -5.626171675E+01  1.462415067E+02  8.242490031E+01  0.00000E+00  9.000E+00
     -24     2     4     4     0     0 -7.544014276E+01 -6.817721509E+01 -2.865764162E+02  3.148678909E+02  8.170923222E+01  0.00000E+00  9.000E+00
     -11     1     5     5     0     0  5.122488582E+01 -4.645238809E+01 -5.415815093E+01  8.783460935E+01  6.743495762E-07  0.00000E+00  9.000E+00
      12     1     5     5     0     0  5.326253392E+01  2.387557636E+01 -2.103565819E+00  5.840689733E+01  1.599915687E-06  0.00000E+00  9.000E+00
      13     1     6     6     0     0 -4.629333678E+01 -8.468983071E+01 -2.011178551E+02  2.230780852E+02  0.000000000E+00  0.00000E+00  9.000E+00
     -14     1     6     6     0     0 -2.914680597E+01  1.651261563E+01 -8.545856113E+01  9.178980577E+01  2.336015456E-06  0.00000E+00  9.000E+00
       5     1     3     3   502     0 -3.436541256E+01  3.736541187E+01 -2.917590210E+01  5.874479848E+01  4.750000000E+00  0.00000E+00  9.000E+00
      -5     1     4     4     0   504  7.015455818E+00  3.833418768E+01 -2.606441799E+02  2.635842893E+02  4.750000000E+00  0.00000E+00  9.000E+00
      21     1     1     2   512   502 -1.697320239E+00  1.505442727E+01  2.028385663E+01  2.531702029E+01  6.743495762E-07  0.00000E+00  9.000E+00
</event>
<event>
     13  10001  1.00000E+00  7.42001E+00 -1.00000E+00  2.19407E-01
       2    -1     0     0   511     0  0.000000000E+00  0.000000000E+00  4.617819057E+02  4.617819057E+02  0.000000000E+00  0.00000E+00  9.000E+00
      -2    -1     0     0     0   512  0.000000000E+00  0.000000000E+00 -8.866912668E+01  8.866912668E+01  0.000000000E+00  0.00000E+00  9.000E+00
       6     2     1     2   502     0 -3.579645414E+01 -7.314578880E+01  2.269364135E+02  2.961685809E+02  1.720000000E+02  0.00000E+00  9.000E+00
      -6     2     1     2     0   512  3.806506118E+01  8.021048851E+01  1.215512561E+02  2.285637312E+02  1.720000000E+02  0.00000E+00  9.000E+00
      24     2     3     3     0     0 -7.257798309E+01 -9.508383060E+01  1.911536380E+02  2.401585097E+02  8.263109593E+01  0.00000E+00  9.000E+00
     -24     2     4     4     0     0  5.777938243E+00  1.148738534E+02  1.138472652E+02  1.803359265E+02  7.956418678E+01  0.00000E+00  9.000E+00
     -11     1     5     5     0     0 -1.218871644E+01 -1.566397741E+01  1.093548420E+02  1.111413805E+02  1.348699152E-06  0.00000E+00  9.000E+00
      12     1     5     5     0     0 -6.038926665E+01 -7.941985319E+01  8.179879600E+01  1.290171292E+02  1.907348633E-06  0.00000E+00  9.000E+00
      13     1     6     6     0     0  3.433869386E+01  6.471727899E+01  3.143571282E+01  7.972249454E+01  4.768371582E-07  0.00000E+00  9.000E+00
     -14     1     6     6     0     0 -2.856075561E+01  5.015657440E+01  8.241155240E+01  1.006134319E+02  1.651812370E-06  0.00000E+00  9.000E+00
       5     1     3     3   502     0  3.678152894E+01  2.193804180E+01  3.578277551E+01  5.601007117E+01  4.750000000E+00  0.00000E+00  9.000E+00
      -5     1     4     4     0   512  3.228712293E+01 -3.466336488E+01  7.703990931E+00  4.822780472E+01  4.750000000E+00  0.00000E+00  9.000E+00
      21     1     1     2   511   502 -2.268607032E+00 -7.064699707E+00  2.462510938E+01  2.571872026E+01  3.371747881E-07  0.00000E+00  9.000E+00
</event>
<event>
     13  10001  1.00000E+00  1.20356E+01 -1.00000E+00  1.92531E-01
      21    -1     0     0   502   503  0.000000000E+00  0.000000000E+00  1.013165741E+02  1.013165741E+02  0.000000000E+00  0.00000E+00  9.000E+00
      21    -1     0     0   512   504  0.000000000E+00  0.000000000E+00 -4.191260171E+02  4.191260171E+02  0.000000000E+00  0.00000E+00  9.000E+00
       6     2     1     2   502     0 -6.230303734E+01 -1.192189854E+01 -2.237161489E+02  2.892347064E+02  1.720000000E+02  0.00000E+00  9.000E+00
      -6     2     1     2     0   504  5.842257895E+01  2.331476639E+01 -5.638396738E+01  1.916244448E+02  1.720000000E+02  0.00000E+00  9.000E+00
      24     2     3     3     0     0 -6.100202019E+01  2.908091284E+01 -2.265957821E+02  2.478369048E+02  7.423299116E+01  0.00000E+00  9.000E+00
     -24     2     4     4     0     0  5.457184472E+01  2.400302603E+01 -1.013796452E+02  1.462099605E+02  8.686362067E+01  0.00000E+00  9.000E+00
     -11     1     5     5     0     0 -9.810314404E+00 -1.915653630E+01 -1.065530260E+02  1.087049332E+02  3.015782986E-06  0.00000E+00  9.000E+00
      12     1     5     5     0     0 -5.119170579E+01  4.823744914E+01 -1.200427561E+02  1.391319717E+02  2.336015456E-06  0.00000E+00  9.000E+00
      13     1     6     6     0     0  1.307605804E+01  5.099679332E+01 -3.427076928E+01  6.281832416E+01  4.768371582E-07  0.00000E+00  9.000E+00
     -14     1     6     6     0     0  4.149578668E+01 -2.699376729E+01 -6.710887595E+01  8.339163637E+01  9.536743164E-07  0.00000E+00  9.000E+00
       5     1     3     3   502     0 -1.301017152E+00 -4.100281138E+01  2.879633236E+00  4.139780156E+01  4.750000000E+00  0.00000E+00  9.000E+00
      -5     1     4     4     0   504  3.850734233E+00 -6.882596437E-01  4.499567785E+01  4.541448426E+01  4.750000000E+00  0.00000E+00  9.000E+00
      21     1     1     2   512   503  3.880458389E+00 -1.139286785E+01 -3.770932681E+01  3.958344002E+01  6.743495762E-07  0.00000E+00  9.000E+00
</event>
<event>
     13  10001  1.00000E+00  1.68029E+01 -1.00000E+00  1.77646E-01
       2    -1     0     0   502     0  0.000000000E+00  0.000000000E+00  3.169888215E+02  3.169888215E+02  0.000000000E+00  0.00000E+00  9.000E+00
      -2    -1     0     0     0   511  0.000000000E+00  0.000000000E+00 -2.938731019E+02  2.938731019E+02  0.000000000E+00  0.00000E+00  9.000E+00
       6     2     1     2   502     0  1.092923081E+02  1.669674611E+02  3.124603387E+01  2.652984288E+02  1.720000000E+02  0.00000E+00  9.000E+00
      -6     2     1     2     0   512 -1.247826322E+02 -1.734779752E+02  5.539510145E+01  2.798534088E+02  1.720000000E+02  0.00000E+00  9.000E+00
      24     2     3     3     0     0  1.304689882E+01  1.265737111E+02 -1.516886659E+01  1.509667213E+02  7.981059156E+01  0.00000E+00  9.000E+00
     -24     2     4     4     0     0 -9.138135594E+01 -1.893824945E+02  7.484931402E+01  2.377864637E+02  8.199817723E+01  0.00000E+00  9.000E+00
     -11     1     5     5     0     0  3.489510668E+01  1.025224267E+02 -3.387635233E+01  1.134730087E+02  3.090257978E-06  0.00000E+00  9.000E+00
      12     1     5     5     0     0 -2.184820785E+01  2.405128440E+01  1.870748574E+01  3.749371267E+01  5.840038640E-07  0.00000E+00  9.000E+00
      13     1     6     6     0     0 -3.676256144E+00 -5.523942684E+01  5.189371037E+01  7.588060564E+01  1.651812370E-06  0.00000E+00  9.000E+00
     -14     1     6     6     0     0 -8.770509980E+01 -1.341430676E+02  2.295560365E+01  1.619058580E+02  1.507891493E-06  0.00000E+00  9.000E+00
       5     1     3     3   502     0  9.624540925E+01  4.039375002E+01  4.641490045E+01  1.143317074E+02  4.750000000E+00  0.00000E+00  9.000E+00
      -5     1     4     4     0   512 -3.340127626E+01  1.590451928E+01 -1.945421257E+01  4.206694517E+01  4.750000000E+00  0.00000E+00  9.000E+00
      21     1     1     2   512   511  1.549032413E+01  6.510514076E+00 -6.352541567E+01  6.571008576E+01  1.348699152E-06  0.00000E+00  9.000E+00
</event>
<event>
     13  10001  1.00000E+00  2.44803E+02 -1.00000E+00  1.10363E-01
       2    -1     0     0   503     0  0.000000000E+00  0.000000000E+00  2.271641163E+02  2.271641163E+02  0.000000000E+00  0.00000E+00  9.000E+00
      21    -1     0     0   502   503  0.000000000E+00  0.000000000E+00 -5.600277703E+02  5.600277703E+02  0.000000000E+00  0.00000E+00  9.000E+00
       6     2     1     2   502     0  3.798980288E+01  2.152130194E+01 -1.899382798E+01  1.784689246E+02  1.720000000E+02  0.00000E+00  9.000E+00
      -6     2     1     2     0   504  7.692788656E+01  1.946323717E+02 -2.101644245E+02  3.428596581E+02  1.720000000E+02  0.00000E+00  9.000E+00
      24     2     3     3     0     0  6.703815235E+01 -6.336550062E+00 -6.000316127E+01  1.208130972E+02  8.038133705E+01  0.00000E+00  9.000E+00
     -24     2     4     4     0     0  9.117098140E+01  6.878273195E+01 -7.548628962E+01  1.579224794E+02  7.872812394E+01  0.00000E+00  9.000E+00
     -11     1     5     5     0     0  6.000228698E+01  2.921697708E+01 -2.767951088E+01  7.224999318E+01  7.539457465E-07  0.00000E+00  9.000E+00
      12     1     5     5     0     0  7.035865366E+00 -3.555352714E+01 -3.232365038E+01  4.856310398E+01  4.768371582E-07  0.00000E+00  9.000E+00
      13     1     6     6     0     0  2.973116781E+01  4.242791371E+01 -7.489298595E+01  9.106607242E+01  1.907348633E-06  0.00000E+00  9.000E+00
     -14     1     6     6     0     0  6.143981360E+01  2.635481824E+01 -5.933036713E-01  6.685640693E+01  1.526296489E-06  0.00000E+00  9.000E+00
       5     1     3     3   502     0 -2.904834947E+01  2.785785200E+01  4.100933329E+01  5.765582748E+01  4.750000000E+00  0.00000E+00  9.000E+00
      -5     1     4     4     0   504 -1.424309485E+01  1.258496398E+02 -1.346781349E+02  1.849371788E+02  4.750000000E+00  0.00000E+00  9.000E+00
       2     1     1     2   504     0 -1.149176894E+02 -2.161536737E+02 -1.037054016E+02  2.658633038E+02  3.015782986E-06  0.00000E+00  9.000E+00
</event>
<event>
     13  10001  1.00000E+00  2.75114E+01 -1.00000E+00  1.59541E-01
      21    -1     0     0   511   503  0.000000000E+00  0.000000000E+00  6.281009970E+02  6.281009970E+02  0.000000000E+00  0.00000E+00  9.000E+00
      21    -1     0     0   503   504  0.000000000E+00  0.000000000E+00 -1.367451537E+02  1.367451537E+02  0.000000000E+00  0.00000E+00  9.000E+00
       6     2     1     2   502     0  3.916959455E+01 -5.567839814E+01  8.041069646E+01  2.017033001E+02  1.720000000E+02  0.00000E+00  9.000E+00
      -6     2     1     2     0   504 -6.347236601E+01  4.278440825E+01  4.163916595E+01  1.928135550E+02  1.720000000E+02  0.00000E+00  9.000E+00
      24     2     3     3     0     0  4.558867002E+00 -9.710565022E+01  4.307759579E+01  1.358972017E+02  8.462907066E+01  0.00000E+00  9.000E+00
     -24     2     4     4     0     0 -3.226090782E+00  4.384007493E+01  8.039244275E+01  1.210144806E+02  7.905188070E+01  0.00000E+00  9.000E+00
     -11     1     5     5     0     0  8.204791265E+00 -3.629408850E+01 -2.477932543E+01  4.470564202E+01  6.743495762E-07  0.00000E+00  9.000E+00
      12     1     5     5     0     0 -3.645924263E+00 -6.081156172E+01  6.785692122E+01  9.119155969E+01  0.000000000E+00  0.00000E+00  9.000E+00
      13     1     6     6     0     0  1.814501027E+00  3.813866472E+01 -2.035463918E+00  3.823602063E+01  1.046905999E-06  0.00000E+00  9.000E+00
     -14     1     6     6     0     0 -5.040591810E+00  5.701410211E+00  8.242790666E+01  8.277846001E+01  1.907348633E-06  0.00000E+00  9.000E+00
       5     1     3     3   502     0  3.461072755E+01  4.142725208E+01  3.733310067E+01  6.580609837E+01  4.750000000E+00  0.00000E+00  9.000E+00
      -5     1     4     4     0   504 -6.024627523E+01 -1.055666680E+00 -3.875327679E+01  7.179907432E+01  4.750000000E+00  0.00000E+00  9.000E+00
      21     1     1     2   511   502  2.430277146E+01  1.289398989E+01  3.693059809E+02  3.703292956E+02  9.344061824E-06  0.00000E+00  9.000E+00
</event>
<event>
     13  10001  1.00000E+00  1.87342E+01 -1.00000E+00  1.73294E-01
      21    -1     0     0   502   503  0.000000000E+00  0.000000000E+00  7.060697889E+02  7.060697889E+02  0.000000000E+00  0.00000E+00  9.000E+00
      21    -1     0     0   512   504  0.000000000E+00  0.000000000E+00 -8.927327441E+01  8.927327441E+01  0.000000000E+00  0.00000E+00  9.000E+00
       6     2     1     2   502     0  7.230591812E+00 -1.039713162E+02  3.637011045E+02  4.156017438E+02  1.720000000E+02  0.00000E+00  9.000E+00
      -6     2     1     2     0   504 -2.524445721E+01  9.882625501E+01  2.817530021E+02  3.455034956E+02  1.720000000E+02  0.00000E+00  9.000E+00
      24     2     3     3     0     0 -2.311287463E+01 -1.180309290E+02  3.517349859E+02  3.797667168E+02  7.771585219E+01  0.00000E+00  9.000E+00
     -24     2     4     4     0     0  1.910968795E+01  9.570551917E-01  1.751493558E+02  1.940684589E+02  8.135830469E+01  0.00000E+00  9.000E+00
     -11     1     5     5     0     0 -1.573725575E+01 -1.199813387E+02  3.519114530E+02  3.721355312E+02  5.394796609E-06  0.00000E+00  9.000E+00
      12     1     5     5     0     0 -7.375618886E+00  1.950409652E+00 -1.764671298E-01  7.631185518E+00  4.818206138E-07  0.00000E+00  9.000E+00
      13     1     6     6     0     0  1.771086842E+01 -3.738906573E+01  6.153809430E+01  7.415223629E+01  6.743495762E-07  0.00000E+00  9.000E+00
     -14     1     6     6     0     0  1.398819530E+00  3.834612092E+01  1.136112615E+02  1.199162226E+02  1.348699152E-06  0.00000E+00  9.000E+00
       5     1     3     3   502     0  3.034346645E+01  1.405961282E+01  1.196611859E+01  3.583502704E+01  4.750000000E+00  0.00000E+00  9.000E+00
      -5     1     4     4     0   504 -4.435414516E+01  9.786919982E+01  1.066036462E+02  1.514350367E+02  4.750000000E+00  0.00000E+00  9.000E+00
      21     1     1     2   512   503  1.801386539E+01  5.145061220E+00 -2.865759207E+01  3.423782389E+01  1.011524364E-06  0.00000E+00  9.000E+00
</event>
<event>
     13  10001  1.00000E+00  2.62747E+01 -1.00000E+00  1.61068E-01
      21    -1     0     0   502   503  0.000000000E+00  0.000000000E+00  1.249753228E+02  1.249753228E+02  0.000000000E+00  0.00000E+00  9.000E+00
      21    -1     0     0   503   511  0.000000000E+00  0.000000000E+00 -5.678741173E+02  5.678741173E+02  0.000000000E+00  0.00000E+00  9.000E+00
       6     2     1     2   502     0  7.001317331E+01  2.630444775E+01 -2.557949418E+02  3.171889353E+02  1.720000000E+02  0.00000E+00  9.000E+00
      -6     2     1     2     0   504 -9.609458491E+01 -2.312333569E+01 -1.215280310E+01  1.987474491E+02  1.720000000E+02  0.00000E+00  9.000E+00
      24     2     3     3     0     0  8.598847555E+00  5.266362357E-01 -5.184824932E+01  1.025892362E+02  8.810274058E+01  0.00000E+00  9.000E+00
     -24     2     4     4     0     0 -7.605381935E+01 -8.081565860E+01 -9.231375295E+00  1.374193671E+02  8.052024615E+01  0.00000E+00  9.000E+00
     -11     1     5     5     0     0  4.202549678E+01 -1.408301235E+01 -7.151920837E+00  4.489569677E+01  1.519626234E-06  0.00000E+00  9.000E+00
      12     1     5     5     0     0 -3.342664923E+01  1.460964859E+01 -4.469632848E+01  5.769353941E+01  1.507891493E-06  0.00000E+00  9.000E+00
      13     1     6     6     0     0 -2.279508314E+01 -7.941534487E+01  3.301188594E+00  8.268803216E+01  7.039911634E-07  0.00000E+00  9.000E+00
     -14     1     6     6     0     0 -5.325873622E+01 -1.400313726E+00 -1.253256389E+01  5.473133490E+01  1.052827938E-06  0.00000E+00  9.000E+00
       5     1     3     3   502     0  6.141432576E+01  2.577781152E+01 -2.039466925E+02  2.145996991E+02  4.750000000E+00  0.00000E+00  9.000E+00
      -5     1     4     4     0   504 -2.004076556E+01  5.769232291E+01 -2.921427802E+00  6.132808205E+01  4.750000000E+00  0.00000E+00  9.000E+00
      21     1     1     2   504   511  2.608141160E+01 -3.181112065E+00 -1.749510496E+02  1.769130556E+02  1.907348633E-06  0.00000E+00  9.000E+00
</event>
<event>
     13  10001  1.00000E+00  4.46453E+01 -1.00000E+00  1.45111E-01
      21    -1     0     0   502   512  0.000000000E+00  0.000000000E+00  1.980772276E+02  1.980772276E+02  0.000000000E+00  0.00000E+00  9.000E+00
      21    -1     0     0   503   504  0.000000000E+00  0.000000000E+00 -1.564765914E+03  1.564765914E+03  0.000000000E+00  0.00000E+00  9.000E+00
       6     2     1     2   502     0  2.181858241E+02  3.212460156E+02 -1.746740564E+02  4.592375010E+02  1.720000000E+02  0.00000E+00  9.000E+00
      -6     2     1     2     0   504 -2.096393742E+02 -2.774263285E+02 -1.197363437E+03  1.258641027E+03  1.720000000E+02  0.00000E+00  9.000E+00
      24     2     3     3     0     0  5.147644014E+01  8.751396948E+01 -9.579163980E+01  1.614663032E+02  8.115916512E+01  0.00000E+00  9.000E+00
     -24     2     4     4     0     0 -7.339680455E+01 -9.807340250E+01 -3.047196506E+02  3.380080917E+02  7.993698413E+01  0.00000E+00  9.000E+00
     -11     1     5     5     0     0  3.562416835E+01 -4.768438911E+00 -2.098966820E+01  4.162193594E+01  1.092571186E-06  0.00000E+00  9.000E+00
      12     1     5     5     0     0  1.585227180E+01  9.228240839E+01 -7.480197160E+01  1.198443673E+02  2.523185073E-06  0.00000E+00  9.000E+00
      13     1     6     6     0     0  1.166746637E+01 -4.109706186E+01 -1.101701724E+02  1.181632986E+02  1.348699152E-06  0.00000E+00  9.000E+00
     -14     1     6     6     0     0 -8.506427092E+01 -5.697634065E+01 -1.945494782E+02  2.198447931E+02  2.697398305E-06  0.00000E+00  9.000E+00
       5     1     3     3   502     0  1.667093839E+02  2.337320461E+02 -7.888241656E+01  2.977711978E+02  4.750000000E+00  0.00000E+00  9.000E+00
      -5     1     4     4     0   504 -1.362425697E+02 -1.793529260E+02 -8.926437861E+02  9.206329351E+02  4.750000000E+00  0.00000E+00  9.000E+00
      21     1     1     2   503   512 -8.546449863E+00 -4.381968709E+01  5.348806316E+00  4.496461399E+01  1.057877502E-06  0.00000E+00  9.000E+00
</event>
<event>
     13  10001  1.00000E+00  3.56084E+01 -1.00000E+00  1.51503E-01
      21    -1     0     0   502   503  0.000000000E+00  0.000000000E+00  1.099109012E+02  1.099109012E+02  0.000000000E+00  0.00000E+00  9.000E+00
      21    -1     0     0   511   504  0.000000000E+00  0.000000000E+00 -5.139790776E+02  5.139790776E+02  0.000000000E+00  0.00000E+00  9.000E+00
       6     2     1     2   502     0  3.923818181E+01 -3.368769408E+01 -1.596707541E+01  1.803148445E+02  1.720000000E+02  0.00000E+00  9.000E+00
      -6     2     1     2     0   504 -3.684290821E+00  3.565744736E+01 -3.487360650E+02  3.904943925E+02  1.720000000E+02  0.00000E+00  9.000E+00
      24     2     3     3     0     0  4.749714989E+01 -8.450363617E+01 -2.017448869E+01  1.284425460E+02  8.181463105E+01  0.00000E+00  9.000E+00
     -24     2     4     4     0     0  7.016510759E+00  8.919904964E+01 -2.418156195E+02  2.703455078E+02  8.127852039E+01  0.00000E+00  9.000E+00
     -11     1     5     5     0     0  2.909955785E+01  8.985274528E+00 -1.226753897E+01  3.283309212E+01  4.768371582E-07  0.00000E+00  9.000E+00
      12     1     5     5     0     0  1.839759204E+01 -9.348891070E+01 -7.906949721E+00  9.560945387E+01  2.730126975E-06  0.00000E+00  9.000E+00
      13     1     6     6     0     0 -2.886501247E+01  1.070259164E+01 -9.692496243E+01  1.016965228E+02  1.348699152E-06  0.00000E+00  9.000E+00
     -14     1     6     6     0     0  3.588152323E+01  7.849645801E+01 -1.448906571E+02  1.686489850E+02  0.000000000E+00  0.00000E+00  9.000E+00
       5     1     3     3   502     0 -8.258968083E+00  5.081594209E+01  4.207413283E+00  5.187229849E+01  4.750000000E+00  0.00000E+00  9.000E+00
      -5     1     4     4     0   504 -1.070080158E+01 -5.354160229E+01 -1.069204455E+02  1.201488847E+02  4.750000000E+00  0.00000E+00  9.000E+00
      21     1     1     2   511   503 -3.555389099E+01 -1.969753278E+00 -3.936503602E+01  5.308074183E+01  6.743495762E-07  0.00000E+00  9.000E+00
</event>
<event>
     13  10001  1.00000E+00  3.67448E+01 -1.00000E+00  1.50580E-01
      21    -1     0     0   503   504  0.000000000E+00  0.000000000E+00  1.198590649E+02  1.198590649E+02  0.000000000E+00  0.00000E+00  9.000E+00
      21    -1     0     0   502   512  0.000000000E+00  0.000000000E+00 -5.497428634E+02  5.497428634E+02  0.000000000E+00  0.00000E+00  9.000E+00
       6     2     1     2   502     0  7.476770183E+01 -8.954534196E+01 -3.492526166E+01  2.107423816E+02  1.720000000E+02  0.00000E+00  9.000E+00
      -6     2     1     2     0   504 -3.816694837E+01  8.629468488E+01 -3.444298761E+02  3.963829312E+02  1.720000000E+02  0.00000E+00  9.000E+00
      24     2     3     3     0     0  3.220131632E+01 -3.113610373E+00 -6.685741126E+01  1.091325097E+02  7.995856352E+01  0.00000E+00  9.000E+00
     -24     2     4     4     0     0 -7.909073004E+01  6.053173567E+01 -1.564053568E+02  2.021813147E+02  8.059288930E+01  0.00000E+00  9.000E+00
     -11     1     5     5     0     0 -6.539836739E+00 -2.193434183E+01 -6.163320281E+01  6.574599992E+01  1.168007728E-06  0.00000E+00  9.000E+00
      12     1     5     5     0     0  3.874115306E+01  1.882073146E+01 -5.224208447E+00  4.338650974E+01  7.862392639E-07  0.00000E+00  9.000E+00
      13     1     6     6     0     0 -1.254135600E+01  4.703641448E+01 -1.089725793E+02  1.193513005E+02  1.907348633E-06  0.00000E+00  9.000E+00
     -14     1     6     6     0     0 -6.654937404E+01  1.349532119E+01 -4.743277748E+01  8.283001423E+01  2.023048729E-06  0.00000E+00  9.000E+00
       5     1     3     3   502     0  4.256638550E+01 -8.643173159E+01  3.193214960E+01  1.016098720E+02  4.750000000E+00  0.00000E+00  9.000E+00
      -5     1     4     4     0   504  4.092378167E+01  2.576294921E+01 -1.880245193E+02  1.942016164E+02  4.750000000E+00  0.00000E+00  9.000E+00
      21     1     1     2   503   512 -3.660075345E+01  3.250657086E+00 -5.052866080E+01  6.247661552E+01  6.743495762E-07  0.00000E+00  9.000E+00
</event>
<event>
     13  10001  1.00000E+00  3.21656E+01 -1.00000E+00  1.54569E-01
      21    -1     0     0   502   511  0.000000000E+00  0.000000000E+00  4.824169307E+01  4.824169307E+01  0.000000000E+00  0.00000E+00  9.000E+00
      -2    -1     0     0     0   512  0.000000000E+00  0.000000000E+00 -1.054103166E+03  1.054103166E+03  0.000000000E+00  0.00000E+00  9.000E+00
       6     2     1     2   502     0  4.092530712E+01  5.188646219E+01 -2.682672678E+02  3.254510911E+02  1.720000000E+02  0.00000E+00  9.000E+00
      -6     2     1     2     0   512 -7.241096043E+01 -4.530794983E+01 -7.065755696E+02  7.322084355E+02  1.720000000E+02  0.00000E+00  9.000E+00
      24     2     3     3     0     0  2.450900926E+00 -3.594118646E+01 -1.275630387E+02  1.551154859E+02  8.056493862E+01  0.00000E+00  9.000E+00
     -24     2     4     4     0     0 -3.231227351E+01 -4.658657426E+01 -6.717718883E+02  6.788849107E+02  7.995536292E+01  0.00000E+00  9.000E+00
     -11     1     5     5     0     0 -3.693995670E+01 -3.126478596E+01 -7.513973666E+01  8.937576443E+01  1.348699152E-06  0.00000E+00  9.000E+00
      12     1     5     5     0     0  3.939085763E+01 -4.676400501E+00 -5.242330204E+01  6.573972150E+01  1.348699152E-06  0.00000E+00  9.000E+00
      13     1     6     6     0     0 -3.341136238E+01  1.476349962E+01 -2.677356090E+02  2.702159070E+02  0.000000000E+00  0.00000E+00  9.000E+00
     -14     1     6     6     0     0  1.099088874E+00 -6.135007388E+01 -4.040362793E+02  4.086690037E+02  7.629394531E-06  0.00000E+00  9.000E+00
       5     1     3     3   502     0  3.847440619E+01  8.782764865E+01 -1.407042291E+02  1.703356051E+02  4.750000000E+00  0.00000E+00  9.000E+00
      -5     1     4     4     0   512 -4.009868691E+01  1.278624431E+00 -3.480368123E+01  5.332352483E+01  4.750000000E+00  0.00000E+00  9.000E+00
      -2     1     1     2     0   511  3.148565331E+01 -6.578512362E+00 -3.101863570E+01  4.468533260E+01  5.840038640E-07  0.00000E+00  9.000E+00
</event>
<event>
     13  10001  1.00000E+00  1.21594E+01 -1.00000E+00  1.92036E-01
      21    -1     0     0   512   503  0.000000000E+00  0.000000000E+00  3.475295859E+02  3.475295859E+02  0.000000000E+00  0.00000E+00  9.000E+00
      21    -1     0     0   503   504  0.000000000E+00  0.000000000E+00 -1.525763699E+02  1.525763699E+02  0.000000000E+00  0.00000E+00  9.000E+00
       6     2     1     2   502     0  8.616443951E+01  2.516068403E+00  7.862572490E+01  2.078380279E+02  1.720000000E+02  0.00000E+00  9.000E+00
      -6     2     1     2     0   504 -7.430086971E+01  1.498491766E-01  1.255178692E+01  1.877822916E+02  1.720000000E+02  0.00000E+00  9.000E+00
      24     2     3     3     0     0  1.281077396E+01  4.466399297E+01  8.151245695E+01  1.230553439E+02  7.962002775E+01  0.00000E+00  9.000E+00
     -24     2     4     4     0     0 -1.107018158E+02  9.922347471E+00  2.513641382E+01  1.477639717E+02  9.406916086E+01  0.00000E+00  9.000E+00
     -11     1     5     5     0     0 -1.114290423E+00 -2.048126811E+01  4.085405911E+00  2.091445739E+01  4.693274423E-07  0.00000E+00  9.000E+00
      12     1     5     5     0     0  1.392506439E+01  6.514526107E+01  7.742705103E+01  1.021408865E+02  0.000000000E+00  0.00000E+00  9.000E+00
      13     1     6     6     0     0 -1.128038357E+02 -1.465060670E+00 -7.571080080E+00  1.130671172E+02  1.517286546E-06  0.00000E+00  9.000E+00
     -14     1     6     6     0     0  2.102019868E+00  1.138740814E+01  3.270749390E+01  3.469685446E+01  6.743495762E-07  0.00000E+00  9.000E+00
       5     1     3     3   502     0  7.335366555E+01 -4.214792456E+01 -2.886732048E+00  8.478268406E+01  4.750000000E+00  0.00000E+00  9.000E+00
      -5     1     4     4     0   504  3.640094608E+01 -9.772498295E+00 -1.258462690E+01  4.001831996E+01  4.750000000E+00  0.00000E+00  9.000E+00
      21     1     1     2   512   502 -1.186356980E+01 -2.665917579E+00  1.037757042E+02  1.044856363E+02  1.907348633E-06  0.00000E+00  9.000E+00
</event>
<event>
     13  10001  1.00000E+00  6.58160E+01 -1.00000E+00  1.35342E-01
       1    -1     0     0   502     0  0.000000000E+00  0.000000000E+00  3.109631629E+02  3.109631629E+02  0.000000000E+00  0.00000E+00  9.000E+00
      21    -1     0     0   511   512  0.000000000E+00  0.000000000E+00 -2.702062597E+02  2.702062597E+02  0.000000000E+00  0.00000E+00  9.000E+00
       6     2     1     2   502     0  1.862351104E+01  3.938313103E+01 -1.584789537E+02  2.379021752E+02  1.720000000E+02  0.00000E+00  9.000E+00
      -6     2     1     2     0   512 -4.565150852E+01 -9.939337827E+01  1.864022913E+02  2.762117269E+02  1.720000000E+02  0.00000E+00  9.000E+00
      24     2     3     3     0     0  3.181964188E+01 -3.584322807E+01 -5.717191024E+01  1.109422503E+02  8.211168591E+01  0.00000E+00  9.000E+00
     -24     2     4     4     0     0  3.132902309E+01 -4.964663252E+01  4.890710318E+01  1.108992040E+02  8.037681821E+01  0.00000E+00  9.000E+00
     -11     1     5     5     0     0 -1.486139989E+01 -4.503346281E+01 -3.077420012E+01  5.653251607E+01  1.581489940E-06  0.00000E+00  9.000E+00
      12     1     5     5     0     0  4.668104177E+01  9.190234740E+00 -2.639771011E+01  5.440973419E+01  1.348699152E-06  0.00000E+00  9.000E+00
      13     1     6     6     0     0  2.871048979E+01 -6.728577404E+01  1.819250053E+01  7.538325204E+01  1.011524364E-06  0.00000E+00  9.000E+00
     -14     1     6     6     0     0  2.618533298E+00  1.763914152E+01  3.071460265E+01  3.551595200E+01  8.259061849E-07  0.00000E+00  9.000E+00
       5     1     3     3   502     0 -1.319613083E+01  7.522635910E+01 -1.013070435E+02  1.269599249E+02  4.750000000E+00  0.00000E+00  9.000E+00
      -5     1     4     4     0   512 -7.698053161E+01 -4.974674575E+01  1.374951881E+02  1.653125229E+02  4.750000000E+00  0.00000E+00  9.000E+00
       1     1     1     2   511     0  2.702799748E+01  6.001024724E+01  1.283356567E+01  6.705552050E+01  1.250277577E-06  0.00000E+00  9.000E+00
</event>
<event>
     13  10001  1.00000E+00  1.14388E+01 -1.00000E+00  1.95030E-01
      21    -1     0     0   512   503  0.000000000E+00  0.000000000E+00  6.584394087E+01  6.584394087E+01  0.000000000E+00  0.00000E+00  9.000E+00
      21    -1     0     0   503   504  0.000000000E+00  0.000000000E+00 -7.840561317E+02  7.840561317E+02  0.000000000E+00  0.00000E+00  9.000E+00
       6     2     1     2   502     0 -9.172071857E+01  1.036018481E+02 -3.878012435E+02  4.462284590E+02  1.720000000E+02  0.00000E+00  9.000E+00
      -6     2     1     2     0   504  9.633352867E+01 -9.313433777E+01 -3.240820350E+02  3.905986675E+02  1.720000000E+02  0.00000E+00  9.000E+00
      24     2     3     3     0     0  8.495681591E+00  5.185372075E+00 -1.812461010E+02  1.963950765E+02  7.497874533E+01  0.00000E+00  9.000E+00
     -24     2     4     4     0     0  9.636252106E+01 -1.077417350E+02 -3.343286120E+02  3.721343306E+02  7.625170347E+01  0.00000E+00  9.000E+00
     -11     1     5     5     0     0 -1.535891961E+01  1.159868059E+01 -1.665373837E+02  1.676458350E+02  2.697398305E-06  0.00000E+00  9.000E+00
      12     1     5     5     0     0  2.385460120E+01 -6.413308519E+00 -1.470871730E+01  2.874924154E+01  3.769728732E-07  0.00000E+00  9.000E+00
      13     1     6     6     0     0  1.448300535E+01  6.388384352E+00 -1.007316214E+01  1.876266223E+01  2.920019320E-07  0.00000E+00  9.000E+00
     -14     1     6     6     0     0  8.187951571E+01 -1.141301194E+02 -3.242554499E+02  3.533716684E+02  6.607249480E-06  0.00000E+00  9.000E+00
       5     1     3     3   502     0 -1.002164002E+02  9.841647601E+01 -2.065551425E+02  2.498333825E+02  4.750000000E+00  0.00000E+00  9.000E+00
      -5     1     4     4     0   504 -2.899239009E-02  1.460739724E+01  1.024657702E+01  1.846433685E+01  4.750000000E+00  0.00000E+00  9.000E+00
      21     1     1     2   512   502 -4.612810095E+00 -1.046751031E+01 -6.328912343E+00  1.307294613E+01  1.460009660E-07  0.00000E+00  9.000E+00
</event>
<event>
     13  10001  1.00000E+00  3.04342E+01 -1.00000E+00  1.56293E-01
      21    -1     0     0   502   503  0.000000000E+00  0.000000000E+00  1.375531168E+02  1.375531168E+02  0.000000000E+00  0.00000E+00  9.000E+00
      21    -1     0     0   503   511  0.000000000E+00  0.000000000E+00 -3.786351312E+02  3.786351312E+02  0.000000000E+00  0.00000E+00  9.000E+00
       6     2     1     2   502     0  6.920131700E+01 -4.924151896E+01  2.403193361E+00  1.918419266E+02  1.720000000E+02  0.00000E+00  9.000E+00
      -6     2     1     2     0   504 -3.913959757E+01  4.449454019E+01 -1.917080279E+02  2.642870413E+02  1.720000000E+02  0.00000E+00  9.000E+00
      24     2     3     3     0     0 -2.058901204E+01 -3.529393035E+01  2.926589513E+01  9.696829664E+01  8.292640713E+01  0.00000E+00  9.000E+00
     -24     2     4     4     0     0 -9.095044609E+01  2.268568901E+01 -1.179578081E+02  1.714342145E+02  8.178643699E+01  0.00000E+00  9.000E+00
     -11     1     5     5     0     0 -9.875938391E+00  1.989744477E+01 -1.379713787E+01  2.614963634E+01  3.371747881E-07  0.00000E+00  9.000E+00
      12     1     5     5     0     0 -1.071307365E+01 -5.519137512E+01  4.306303300E+01  7.081866029E+01  2.431401974E-06  0.00000E+00  9.000E+00
      13     1     6     6     0     0 -1.004118144E+02  3.040703348E+01 -8.109993348E+01  1.326058798E+02  2.336015456E-06  0.00000E+00  9.000E+00
     -14     1     6     6     0     0  9.461368321E+00 -7.721344467E+00 -3.685787457E+01  3.882833461E+01  1.430511475E-06  0.00000E+00  9.000E+00
       5     1     3     3   502     0  8.979032904E+01 -1.394758861E+01 -2.686270177E+01  9.487362996E+01  4.750000000E+00  0.00000E+00  9.000E+00
      -5     1     4     4     0   504  5.181084852E+01  2.180885117E+01 -7.375021987E+01  9.285282680E+01  4.750000000E+00  0.00000E+00  9.000E+00
      21     1     1     2   504   511 -3.006171943E+01  4.746978772E+00 -5.177717988E+01  6.005928020E+01  6.743495762E-07  0.00000E+00  9.000E+00
</event>
<event>
     13  10001  1.00000E+00  4.54568E+01 -1.00000E+00  1.44625E-01
      21    -1     0     0   503   504  0.000000000E+00  0.000000000E+00  5.451791080E+02  5.451791080E+02  0.000000000E+00  0.00000E+00  9.000E+00
      21    -1     0     0   512   503  0.000000000E+00  0.000000000E+00 -4.397428968E+02  4.397428968E+02  0.000000000E+00  0.00000E+00  9.000E+00
       6     2     1     2   502     0  5.511221683E+01 -1.067323446E+02  1.556171990E+02  2.612084655E+02  1.720000000E+02  0.00000E+00  9.000E+00
      -6     2     1     2     0   504 -2.039778107E+01  7.738564833E+01  3.085011995E+02  3.621623920E+02  1.720000000E+02  0.00000E+00  9.000E+00
      24     2     3     3     0     0  9.356206266E+01 -4.190493401E+01  7.820577552E+01  1.530600730E+02  8.247035571E+01  0.00000E+00  9.000E+00
     -24     2     4     4     0     0 -1.677922310E+01  5.000254251E+01  3.183018059E+02  3.324716050E+02  8.024669426E+01  0.00000E+00  9.000E+00
     -11     1     5     5     0     0  5.173699171E+01  1.934772555E+01  1.988421209E+01  5.870632577E+01  6.307962682E-07  0.00000E+00  9.000E+00
      12     1     5     5     0     0  4.182507095E+01 -6.125265956E+01  5.832156343E+01  9.435374727E+01  2.236564522E-06  0.00000E+00  9.000E+00
      13     1     6     6     0     0 -3.458931773E+01  5.179439394E+01  1.394525294E+02  1.527288057E+02  3.303624740E-06  0.00000E+00  9.000E+00
     -14     1     6     6     0     0  1.781009462E+01 -1.791851427E+00  1.788492765E+02  1.797427993E+02  2.697398305E-06  0.00000E+00  9.000E+00
       5     1     3     3   502     0 -3.844984583E+01 -6.482741060E+01  7.741142344E+01  1.081483924E+02  4.750000000E+00  0.00000E+00  9.000E+00
      -5     1     4     4     0   504 -3.618557964E+00  2.738310581E+01 -9.800606321E+00  2.969078696E+01  4.750000000E+00  0.00000E+00  9.000E+00
      21     1     1     2   512   502 -3.471443576E+01  2.934669628E+01 -3.586821873E+02  3.615511473E+02  6.607249480E-06  0.00000E+00  9.000E+00
</event>
<event>
     13  10001  1.00000E+00  1.42598E+01 -1.00000E+00  1.84656E-01
      21    -1     0     0   502   503  0.000000000E+00  0.000000000E+00  3.248891905E+02  3.248891905E+02  0.000000000E+00  0.00000E+00  9.000E+00
       3    -1     0     0   503     0  0.000000000E+00  0.000000000E+00 -2.223507043E+02  2.223507043E+02  0.000000000E+00  0.00000E+00  9.000E+00
       6     2     1     2   502     0  7.593853308E+01  8.904406365E+01  7.145458655E+01  2.199665066E+02  1.720000000E+02  0.00000E+00  9.000E+00
      -6     2     1     2     0   504 -7.002303584E+01 -7.606913694E+01  1.222579484E+02  2.349909468E+02  1.720000000E+02  0.00000E+00  9.000E+00
      24     2     3     3     0     0  6.131666894E+01  2.168735782E+01 -2.390660396E+01  1.022080933E+02  7.513250464E+01  0.00000E+00  9.000E+00
     -24     2     4     4     0     0 -6.940884508E+01 -6.756779058E+01  1.557926996E+02  2.000654238E+02  7.982364603E+01  0.00000E+00  9.000E+00
     -11     1     5     5     0     0  2.783116835E+01  4.880646643E+01 -1.126476418E+01  5.730218154E+01  1.549720764E-06  0.00000E+00  9.000E+00
      12     1     5     5     0     0  3.348550060E+01 -2.711910862E+01 -1.264183978E+01  4.490591181E+01  6.307962682E-07  0.00000E+00  9.000E+00
      13     1     6     6     0     0 -1.062388525E+01 -3.101141452E+01  3.736213833E+00  3.299293958E+01  7.598131170E-07  0.00000E+00  9.000E+00
     -14     1     6     6     0     0 -5.878495982E+01 -3.655637606E+01  1.520564857E+02  1.670724842E+02  2.697398305E-06  0.00000E+00  9.000E+00
       5     1     3     3   502     0  1.462186414E+01  6.735670583E+01  9.536119051E+01  1.177584132E+02  4.750000000E+00  0.00000E+00  9.000E+00
      -5     1     4     4     0   504 -6.141907585E-01 -8.501346357E+00 -3.353475119E+01  3.492552301E+01  4.750000000E+00  0.00000E+00  9.000E+00
       3     1     1     2   504     0 -5.915497243E+00 -1.297492671E+01 -9.117404868E+01  9.228244136E+01  1.348699152E-06  0.00000E+00  9.000E+00
</event>
<event>
     13  10001  1.00000E+00  1.49158E+01 -1.00000E+00  1.82678E-01
      21    -1     0     0   503   511  0.000000000E+00  0.000000000E+00  6.117804582E+02  6.117804582E+02  0.000000000E+00  0.00000E+00  9.000E+00
      21    -1     0     0   502   503  0.000000000E+00  0.000000000E+00 -2.281761486E+02  2.281761486E+02  0.000000000E+00  0.00000E+00  9.000E+00
       6     2     1     2   502     0  1.906254002E+02 -1.333165878E+01  2.008669824E+02  3.262626564E+02  1.720000000E+02  0.00000E+00  9.000E+00
      -6     2     1     2     0   504 -1.947116458E+02  2.767685018E+01 -6.198025212E+01  2.685222238E+02  1.720000000E+02  0.00000E+00  9.000E+00
      24     2     3     3     0     0  1.479150875E+02 -4.184804965E+00  5.985648640E+01  1.785658107E+02  8.004101504E+01  0.00000E+00  9.000E+00
     -24     2     4     4     0     0 -2.856110816E+01 -2.258545528E+01 -2.052798744E+01  8.999168513E+01  7.969482690E+01  0.00000E+00  9.000E+00
     -11     1     5     5     0     0  5.399505523E+01 -4.031006676E+01  2.854178933E+01  7.317787377E+01  1.617033478E-06  0.00000E+00  9.000E+00
      12     1     5     5     0     0  9.392003223E+01  3.612526179E+01  3.131469708E+01  1.053879369E+02  2.158972058E-06  0.00000E+00  9.000E+00
      13     1     6     6     0     0 -4.265888423E+01  1.227341985E+01  4.810605044E+00  4.464929069E+01  1.271410525E-06  0.00000E+00  9.000E+00
     -14     1     6     6     0     0  1.409777606E+01 -3.485887513E+01 -2.533859248E+01  4.534239444E+01  0.000000000E+00  0.00000E+00  9.000E+00
       5     1     3     3   502     0  4.271031275E+01 -9.146853812E+00  1.410104960E+02  1.476968457E+02  4.750000000E+00  0.00000E+00  9.000E+00
      -5     1     4     4     0   504 -1.661505376E+02  5.026230546E+01 -4.145226468E+01  1.785305387E+02  4.750000000E+00  0.00000E+00  9.000E+00
      21     1     1     2   504   511  4.086245559E+00 -1.434519140E+01  2.447175793E+02  2.451717266E+02  0.000000000E+00  0.00000E+00  9.000E+00
</event>
<event>
     13  10001  1.00000E+00  8.39951E+01 -1.00000E+00  1.29863E-01
      21    -1     0     0   502   503  0.000000000E+00  0.000000000E+00  3.243576990E+02  3.243576990E+02  0.000000000E+00  0.00000E+00  9.000E+00
      21    -1     0     0   512   504  0.000000000E+00  0.000000000E+00 -3.542975238E+02  3.542975238E+02  0.000000000E+00  0.00000E+00  9.000E+00
       6     2     1     2   502     0 -1.814241455E+01 -1.187807385E+02  2.029569477E+02  2.919135722E+02  1.720000000E+02  0.00000E+00  9.000E+00
      -6     2     1     2     0   504 -4.295878509E+01  6.114555168E+01 -6.407067234E+01  1.981748893E+02  1.720000000E+02  0.00000E+00  9.000E+00
      24     2     3     3     0     0 -6.680957002E+01 -3.870077677E+01  7.713067994E+01  1.349546463E+02  7.938731630E+01  0.00000E+00  9.000E+00
     -24     2     4     4     0     0 -1.935020084E+00  9.956560933E+01 -2.636103627E+01  1.303248394E+02  7.982859553E+01  0.00000E+00  9.000E+00
     -11     1     5     5     0     0  7.543176458E+00 -1.947935850E+01  4.882743878E+01  5.310803796E+01  0.000000000E+00  0.00000E+00  9.000E+00
      12     1     5     5     0     0 -7.435274648E+01 -1.922141827E+01  2.830324116E+01  8.184660830E+01  1.430511475E-06  0.00000E+00  9.000E+00
      13     1     6     6     0     0 -4.374087358E+00  7.596519174E+01  1.962308172E+01  7.858058496E+01  1.634515429E-06  0.00000E+00  9.000E+00
     -14     1     6     6     0     0  2.439067274E+00  2.360041759E+01 -4.598411799E+01  5.174425443E+01  6.743495762E-07  0.00000E+00  9.000E+00
       5     1     3     3   502     0  4.866715547E+01 -8.007996170E+01  1.258262677E+02  1.569589259E+02  4.750000000E+00  0.00000E+00  9.000E+00
      -5     1     4     4     0   504 -4.102376500E+01 -3.842005765E+01 -3.770963607E+01  6.785004994E+01  4.750000000E+00  0.00000E+00  9.000E+00
      21     1     1     2   512   503  6.110119963E+01  5.763518679E+01 -1.688261002E+02  1.885667613E+02  1.907348633E-06  0.00000E+00  9.000E+00
</event>
<event>
     13  10001  1.00000E+00  2.38971E+01 -1.00000E+00  1.64313E-01
       2    -1     0     0   502     0  0.000000000E+00  0.000000000E+00  1.533738060E+03  1.533738060E+03  0.000000000E+00  0.00000E+00  9.000E+00
      -2    -1     0     0     0   511  0.000000000E+00  0.000000000E+00 -4.941086051E+01  4.941086051E+01  0.000000000E+00  0.00000E+00  9.000E+00
       6     2     1     2   502     0 -8.548227418E+01 -8.680446834E+01  8.643122874E+02  8.896414812E+02  1.720000000E+02  0.00000E+00  9.000E+00
      -6     2     1     2     0   512  6.200576038E+01  8.234064032E+01  6.345893584E+02  6.655166032E+02  1.720000000E+02  0.00000E+00  9.000E+00
      24     2     3     3     0     0  9.399211498E-01 -9.405664961E+01  4.946216115E+02  5.098847849E+02  8.052588778E+01  0.00000E+00  9.000E+00
     -24     2     4     4     0     0  8.641595876E+01  1.115012587E+02  5.041072896E+02  5.295227349E+02  7.981177042E+01  0.00000E+00  9.000E+00
     -11     1     5     5     0     0  5.479939396E+00 -9.962292170E+01  3.217654745E+02  3.368794693E+02  0.000000000E+00  0.00000E+00  9.000E+00
      12     1     5     5     0     0 -4.540018246E+00  5.566272090E+00  1.728561370E+02  1.730053157E+02  1.907348633E-06  0.00000E+00  9.000E+00
      13     1     6     6     0     0  5.189016699E+00  4.491523682E+01  7.351815419E+01  8.630888360E+01  2.523185073E-06  0.00000E+00  9.000E+00
     -14     1     6     6     0     0  8.122694206E+01  6.658602190E+01  4.305891354E+02  4.432138513E+02  5.394796609E-06  0.00000E+00  9.000E+00
       5     1     3     3   502     0 -8.642219533E+01  7.252181262E+00  3.696906759E+02  3.797566962E+02  4.750000000E+00  0.00000E+00  9.000E+00
      -5     1     4     4     0   512 -2.441019838E+01 -2.916061839E+01  1.304820688E+02  1.359938684E+02  4.750000000E+00  0.00000E+00  9.000E+00
      21     1     1     2   512   511  2.347651380E+01  4.463828023E+00 -1.457444583E+01  2.799083657E+01  1.105501472E-06  0.00000E+00  9.000E+00
</event>
<event>
     13  10001  1.00000E+00  3.21241E+01 -1.00000E+00  1.54609E-01
      21    -1     0     0   513   503  0.000000000E+00  0.000000000E+00  5.080769712E+01  5.080769712E+01  0.000000000E+00  0.00000E+00  9.000E+00
      21    -1     0     0   503   504  0.000000000E+00  0.000000000E+00 -1.514596644E+03  1.514596644E+03  0.000000000E+00  0.00000E+00  9.000E+00
       6     2     1     2   502     0  7.439537114E+00 -1.127232727E+02 -4.999399056E+02  5.406346198E+02  1.720000000E+02  0.00000E+00  9.000E+00
      -6     2     1     2     0   504 -2.721376489E+01  8.740651935E+01 -9.722365797E+02  9.915686843E+02  1.720000000E+02  0.00000E+00  9.000E+00
      24     2     3     3     0     0 -4.824430037E+01 -6.731945678E+01 -2.126122022E+02  2.444219126E+02  8.762819788E+01  0.00000E+00  9.000E+00
     -24     2     4     4     0     0  1.950817849E+01  8.085423677E+00 -2.433300185E+02  2.568564183E+02  7.949703531E+01  0.00000E+00  9.000E+00
     -11     1     5     5     0     0 -4.977552613E+00 -6.952485405E+01 -1.696389543E+02  1.834008075E+02  4.672030912E-06  0.00000E+00  9.000E+00
      12     1     5     5     0     0 -4.326674776E+01  2.205397272E+00 -4.297324787E+01  6.102110513E+01  1.430511475E-06  0.00000E+00  9.000E+00
      13     1     6     6     0     0  3.817042759E+01  2.994034925E+01 -1.063184314E+02  1.168632316E+02  2.697398305E-06  0.00000E+00  9.000E+00
     -14     1     6     6     0     0 -1.866224910E+01 -2.185492558E+01 -1.370115871E+02  1.399931867E+02  2.697398305E-06  0.00000E+00  9.000E+00
       5     1     3     3   502     0  5.568383749E+01 -4.540381590E+01 -2.873277034E+02  2.962127072E+02  4.750000000E+00  0.00000E+00  9.000E+00
      -5     1     4     4     0   504 -4.672194338E+01  7.932109567E+01 -7.289065612E+02  7.347122659E+02  4.750000000E+00  0.00000E+00  9.000E+00
      21     1     1     2   513   502  1.977422777E+01  2.531675333E+01  8.387538188E+00  3.320103733E+01  1.925885012E-06  0.00000E+00  9.000E+00
</event>
<event>
     13  10001  1.00000E+00  2.13835E+01 -1.00000E+00  1.68291E-01
      21    -1     0     0   503   504  0.000000000E+00  0.000000000E+00  4.868955062E+02  4.868955062E+02  0.000000000E+00  0.00000E+00  9.000E+00
      21    -1     0     0   511   503  0.000000000E+00  0.000000000E+00 -3.169728106E+02  3.169728106E+02  0.000000000E+00  0.00000E+00  9.000E+00
       6     2     1     2   502     0  1.875965982E+02 -2.323892509E+02 -9.525926711E+01  3.575689801E+02  1.720000000E+02  0.00000E+00  9.000E+00
      -6     2     1     2     0   504 -1.672766419E+02  2.257293855E+02  2.680819242E+02  4.247200825E+02  1.720000000E+02  0.00000E+00  9.000E+00
      24     2     3     3     0     0  1.572540063E+02 -8.802534277E+01 -5.753138311E+01  2.052286815E+02  7.957178021E+01  0.00000E+00  9.000E+00
     -24     2     4     4     0     0 -4.342367741E+01  1.698914297E+01  6.409698174E+01  1.076326105E+02  7.281558235E+01  0.00000E+00  9.000E+00
     -11     1     5     5     0     0  5.447800676E+01 -3.635115848E+01 -6.189249267E+01  9.011071297E+01  6.743495762E-07  0.00000E+00  9.000E+00
      12     1     5     5     0     0  1.027759996E+02 -5.167418430E+01  4.361109564E+00  1.151179686E+02  2.113234747E-06  0.00000E+00  9.000E+00
      13     1     6     6     0     0 -1.202688857E+01  1.983397812E+01  7.156883782E+01  7.523384400E+01  9.536743164E-07  0.00000E+00  9.000E+00
     -14     1     6     6     0     0 -3.139678883E+01 -2.844835148E+00 -7.471856076E+00  3.239876648E+01  6.743495762E-07  0.00000E+00  9.000E+00
       5     1     3     3   502     0  3.034259187E+01 -1.443639081E+02 -3.772788400E+01  1.523402986E+02  4.750000000E+00  0.00000E+00  9.000E+00
      -5     1     4     4     0   504 -1.238529645E+02  2.087402426E+02  2.039849425E+02  3.170874720E+02  4.750000000E+00  0.00000E+00  9.000E+00
      21     1     1     2   511   502 -2.031995630E+01  6.659865343E+00 -2.899961477E+00  2.157925409E+01  2.107342426E-07  0.00000E+00  9.000E+00
</event>
<event>
     13  10001  1.00000E+00  2.55522E+01 -1.00000E+00  1.62008E-01
      21    -1     0     0   502   503  0.000000000E+00  0.000000000E+00  2.552534669E+02  2.552534669E+02  0.000000000E+00  0.00000E+00  9.000E+00
      21    -1     0     0   503   512  0.000000000E+00  0.000000000E+00 -4.436349076E+02  4.436349076E+02  0.000000000E+00  0.00000E+00  9.000E+00
       6     2     1     2   502     0 -6.736950621E+01  1.150498345E+02  1.570762065E+02  2.683878712E+02  1.720000000E+02  0.00000E+00  9.000E+00
      -6     2     1     2     0   504  6.313527803E+01 -1.402487772E+02 -3.191845134E+02  3.938509064E+02  1.720000000E+02  0.00000E+00  9.000E+00
      24     2     3     3     0     0 -6.130082532E+01  4.845342292E+00  4.308860951E+01  1.096503717E+02  7.990811736E+01  0.00000E+00  9.000E+00
     -24     2     4     4     0     0  4.514647045E+01 -1.668920942E+02 -3.027364091E+02  3.574288502E+02  7.883447657E+01  0.00000E+00  9.000E+00
     -11     1     5     5     0     0 -4.288796605E+01  3.334772484E+01 -6.019091944E-01  5.433056855E+01  2.735489570E-07  0.00000E+00  9.000E+00
      12     1     5     5     0     0 -1.841285927E+01 -2.850238255E+01  4.369051870E+01  5.531980316E+01  6.743495762E-07  0.00000E+00  9.000E+00
      13     1     6     6     0     0 -4.377089748E+00 -1.018297245E+02 -1.214193831E+02  1.585279732E+02  2.336015456E-06  0.00000E+00  9.000E+00
     -14     1     6     6     0     0  4.952356019E+01 -6.506236972E+01 -1.813170259E+02  1.989008770E+02  2.697398305E-06  0.00000E+00  9.000E+00
       5     1     3     3   502     0 -6.068680895E+00  1.102044922E+02  1.139875970E+02  1.587374995E+02  4.750000000E+00  0.00000E+00  9.000E+00
      -5     1     4     4     0   504  1.798880758E+01  2.664331697E+01 -1.644810434E+01  3.642205614E+01  4.750000000E+00  0.00000E+00  9.000E+00
      21     1     1     2   504   512  4.234228186E+00  2.519894268E+01 -2.627313374E+01  3.664959696E+01  7.539457465E-07  0.00000E+00  9.000E+00
</event>
<event>
     13  10001  1.00000E+00  1.27053E+01 -1.00000E+00  1.89941E-01
      21    -1     0     0   502   503  0.000000000E+00  0.000000000E+00  6.403594647E+02  6.403594647E+02  0.000000000E+00  0.00000E+00  9.000E+00
      21    -1     0     0   511   504  0.000000000E+00  0.000000000E+00 -2.654110903E+02  2.654110903E+02  0.000000000E+00  0.00000E+00  9.000E+00
       6     2     1     2   502     0  1.235035081E+02  1.370281172E+02  5.334635146E+02  5.900823187E+02  1.720000000E+02  0.00000E+00  9.000E+00
      -6     2     1     2     0   504 -1.120505787E+02 -1.425286031E+02 -1.241436906E+02  2.790437077E+02  1.720000000E+02  0.00000E+00  9.000E+00
      24     2     3     3     0     0  7.567917591E+01  1.031108625E+02  5.013313439E+02  5.230555643E+02  7.677772663E+01  0.00000E+00  9.000E+00
     -24     2     4     4     0     0 -2.510502759E+01 -4.061091751E+00 -5.681889326E+01  1.021596457E+02  8.100278819E+01  0.00000E+00  9.000E+00
     -11     1     5     5     0     0  3.335401400E+01  1.011868700E+02  3.441975684E+02  3.603099208E+02  3.814697266E-06  0.00000E+00  9.000E+00
      12     1     5     5     0     0  4.232516191E+01  1.923992503E+00  1.571337755E+02  1.627456435E+02  3.303624740E-06  0.00000E+00  9.000E+00
      13     1     6     6     0     0  2.021224474E+01 -2.479629607E+01 -3.597249157E+01  4.813949819E+01  8.259061849E-07  0.00000E+00  9.000E+00
     -14     1     6     6     0     0 -4.531727233E+01  2.073520432E+01 -2.084640169E+01  5.402014748E+01  1.581489940E-06  0.00000E+00  9.000E+00
       5     1     3     3   502     0  4.782433215E+01  3.391725471E+01  3.213217070E+01  6.702675440E+01  4.750000000E+00  0.00000E+00  9.000E+00
      -5     1     4     4     0   504 -8.694555113E+01 -1.384675114E+02 -6.732479730E+01  1.768840620E+02  4.750000000E+00  0.00000E+00  9.000E+00
      21     1     1     2   511   503 -1.145292934E+01  5.500485970E+00 -3.437144958E+01  3.664452869E+01  6.743495762E-07  0.00000E+00  9.000E+00
</event>
<event>
     13  10001  1.00000E+00  3.95907E+00 -1.00000E+00  2.76334E-01
      -2    -1     0     0     0   513  0.000000000E+00  0.000000000E+00  1.098670108E+02  1.098670108E+02  0.000000000E+00  0.00000E+00  9.000E+00
       2    -1     0     0   502     0  0.000000000E+00  0.000000000E+00 -7.802506430E+02  7.802506430E+02  0.000000000E+00  0.00000E+00  9.000E+00
       6     2     1     2   502     0 -1.137570976E+02  1.287352835E+02 -3.237069438E+02  4.048254389E+02  1.720000000E+02  0.00000E+00  9.000E+00
      -6     2     1     2     0   512  1.105663275E+02 -1.310790452E+02 -3.804063797E+02  4.513309679E+02  1.720000000E+02  0.00000E+00  9.000E+00
      24     2     3     3     0     0 -6.829627405E+01  1.373546462E+02 -3.112958053E+02  3.566842014E+02  8.238847743E+01  0.00000E+00  9.000E+00
     -24     2     4     4     0     0  1.137032128E+02 -1.474232774E+02 -3.832399489E+02  4.337934199E+02  8.149741927E+01  0.00000E+00  9.000E+00
     -11     1     5     5     0     0 -7.227311374E+01  1.394085667E+02 -2.500026587E+02  2.952278455E+02  0.000000000E+00  0.00000E+00  9.000E+00
      12     1     5     5     0     0  3.976839691E+00 -2.053920545E+00 -6.129314665E+01  6.145635581E+01  1.507891493E-06  0.00000E+00  9.000E+00
      13     1     6     6     0     0  9.275399131E+00 -7.635365650E+01 -1.442978489E+02  1.635169199E+02  3.814697266E-06  0.00000E+00  9.000E+00
     -14     1     6     6     0     0  1.044278136E+02 -7.106962090E+01 -2.389421001E+02  2.702765000E+02  5.394796609E-06  0.00000E+00  9.000E+00
       5     1     3     3   502     0 -4.546082356E+01 -8.619362610E+00 -1.241113848E+01  4.814123751E+01  4.750000000E+00  0.00000E+00  9.000E+00
      -5     1     4     4     0   512 -3.136885297E+00  1.634423216E+01  2.833569292E+00  1.753754799E+01  4.750000000E+00  0.00000E+00  9.000E+00
      21     1     1     2   512   513  3.190770142E+00  2.343761689E+00  3.372969119E+01  3.396124705E+01  4.768371582E-07  0.00000E+00  9.000E+00
</event>
<event>
     13  10001  1.00000E+00  3.86221E+01 -1.00000E+00  1.49141E-01
      21    -1     0     0   502   503  0.000000000E+00  0.000000000E+00  4.431347042E+02  4.431347042E+02  0.000000000E+00  0.00000E+00  9.000E+00
      21    -1     0     0   503   511  0.000000000E+00  0.000000000E+00 -2.682894338E+02  2.682894338E+02  0.000000000E+00  0.00000E+00  9.000E+00
       6     2     1     2   502     0  3.584356713E+01 -3.977028843E+01  1.338368186E+02  2.244164235E+02  1.720000000E+02  0.00000E+00  9.000E+00
      -6     2     1     2     0   504 -7.283480445E+01  2.866553719E+01  2.279636691E+02  2.961048061E+02  1.720000000E+02  0.00000E+00  9.000E+00
      24     2     3     3     0     0 -3.188617595E+01  5.554888448E+00  1.094378934E+02  1.392133731E+02  7.972531424E+01  0.00000E+00  9.000E+00
     -24     2     4     4     0     0  9.773508867E+00 -2.171973628E+01  1.472442748E+02  1.700056692E+02  8.157072195E+01  0.00000E+00  9.000E+00
     -11     1     5     5     0     0 -1.804870021E+01 -3.649417773E+01  4.158323982E+01  5.819575948E+01  1.348699152E-06  0.00000E+00  9.000E+00
      12     1     5     5     0     0 -1.383747573E+01  4.204906618E+01  6.785465359E+01  8.101761361E+01  1.348699152E-06  0.00000E+00  9.000E+00
      13     1     6     6     0     0 -1.778659367E+01 -2.627361591E+01  1.546137558E+01  3.529475800E+01  3.371747881E-07  0.00000E+00  9.000E+00
     -14     1     6     6     0     0  2.756010253E+01  4.553879629E+00  1.317828992E+02  1.347109112E+02  0.000000000E+00  0.00000E+00  9.000E+00
       5     1     3     3   502     0  6.772974308E+01 -4.532517687E+01  2.439892518E+01  8.520305045E+01  4.750000000E+00  0.00000E+00  9.000E+00
      -5     1     4     4     0   504 -8.260831332E+01  5.038527347E+01  8.071939437E+01  1.260991369E+02  4.750000000E+00  0.00000E+00  9.000E+00
      21     1     1     2   504   511  3.699123732E+01  1.110475124E+01 -1.869552173E+02  1.909029084E+02  2.697398305E-06  0.00000E+00  9.000E+00
</event>
<event>
     13  10001  1.00000E+00  3.37721E+01 -1.00000E+00  1.53084E-01
       2    -1     0     0   503     0  0.000000000E+00  0.000000000E+00  3.296254700E+02  3.296254700E+02  0.000000000E+00  0.00000E+00  9.000E+00
      21    -1     0     0   502   503  0.000000000E+00  0.000000000E+00 -4.035445731E+02  4.035445731E+02  0.000000000E+00  0.00000E+00  9.000E+00
       6     2     1     2   502     0 -2.124407003E+02  6.808657544E+01 -1.868855846E+02  3.380488938E+02  1.720000000E+02  0.00000E+00  9.000E+00
      -6     2     1     2     0   504  2.117805606E+02 -3.432091946E+01 -2.322077238E+00  2.749878605E+02  1.720000000E+02  0.00000E+00  9.000E+00
      24     2     3     3     0     0 -1.735292821E+02  3.564225289E+01 -6.248348409E+01  2.036421320E+02  7.863300942E+01  0.00000E+00  9.000E+00
     -24     2     4     4     0     0  1.629122886E+02 -4.456842142E+01  5.923169063E+01  1.955866757E+02  7.886061486E+01  0.00000E+00  9.000E+00
     -11     1     5     5     0     0 -1.383047893E+02  2.761212287E+01 -1.197375849E+01  1.415415662E+02  4.251612306E-06  0.00000E+00  9.000E+00
      12     1     5     5     0     0 -3.522449283E+01  8.030130021E+00 -5.050972561E+01  6.210056573E+01  6.743495762E-07  0.00000E+00  9.000E+00
      13     1     6     6     0     0  2.157562582E+01 -2.439727713E+01 -1.362313665E+01  3.530332297E+01  5.057621821E-07  0.00000E+00  9.000E+00
     -14     1     6     6     0     0  1.413366627E+02 -2.017114429E+01  7.285482728E+01  1.602833527E+02  4.672030912E-06  0.00000E+00  9.000E+00
       5     1     3     3   502     0 -3.891141811E+01  3.244432255E+01 -1.244021005E+02  1.344067619E+02  4.750000000E+00  0.00000E+00  9.000E+00
      -5     1     4     4     0   504  4.886827207E+01  1.024750196E+01 -6.155376786E+01  7.940118481E+01  4.750000000E+00  0.00000E+00  9.000E+00
       2     1     1     2   504     0  6.601396309E-01 -3.376565598E+01  1.152885587E+02  1.201332888E+02  0.000000000E+00  0.00000E+00  9.000E+00
</event>
<event>
     13  10001  1.00000E+00  1.81251E+01 -1.00000E+00  1.74592E-01
      21    -1     0     0   503   504  0.000000000E+00  0.000000000E+00  3.947046871E+02  3.947046871E+02  0.000000000E+00  0.00000E+00  9.000E+00
      21    -1     0     0   511   503  0.000000000E+00  0.000000000E+00 -2.464947061E+02  2.464947061E+02  0.000000000E+00  0.00000E+00  9.000E+00
       6     2     1     2   502     0 -8.054461664E+01 -6.812221439E+01  2.636793351E+02  3.320223835E+02  1.720000000E+02  0.00000E+00  9.000E+00
      -6     2     1     2     0   504  9.521124685E+01  5.747291829E+01 -1.312788701E+01  2.052429275E+02  1.720000000E+02  0.00000E+00  9.000E+00
      24     2     3     3     0     0 -2.890215615E+01 -2.759452890E+01  3.917731756E+01  9.807120181E+01  8.053760462E+01  0.00000E+00  9.000E+00
     -24     2     4     4     0     0  2.093305397E+01 -6.191005977E-01  4.417928675E+01  9.479562213E+01  8.121468194E+01  0.00000E+00  9.000E+00
     -11     1     5     5     0     0  1.545489788E+01 -4.077495504E+01  1.781648618E+01  4.710496796E+01  2.384185791E-07  0.00000E+00  9.000E+00
      12     1     5     5     0     0 -4.435705404E+01  1.318042613E+01  2.136083138E+01  5.096623385E+01  3.371747881E-07  0.00000E+00  9.000E+00
      13     1     6     6     0     0  1.569998744E+01 -1.330411694E+01 -2.027976433E+01  2.889217843E+01  9.536743164E-07  0.00000E+00  9.000E+00
     -14     1     6     6     0     0  5.233066530E+00  1.268501634E+01  6.445905108E+01  6.590344370E+01  1.348699152E-06  0.00000E+00  9.000E+00
       5     1     3     3   502     0 -5.164246048E+01 -4.052768549E+01  2.245020175E+02  2.339511817E+02  4.750000000E+00  0.00000E+00  9.000E+00
      -5     1     4     4     0   504  7.427819288E+01  5.809201889E+01 -5.730717376E+01  1.104473054E+02  4.750000000E+00  0.00000E+00  9.000E+00
      21     1     1     2   511   502 -1.466663021E+01  1.064929610E+01 -1.023414671E+02  1.039340822E+02  1.348699152E-06  0.00000E+00  9.000E+00
</event>
<event>
     13  10001  1.00000E+00  3.62181E+01 -1.00000E+00  1.51003E-01
       2    -1     0     0   503     0  0.000000000E+00  0.000000000E+00  1.520760585E+03  1.520760585E+03  0.000000000E+00  0.00000E+00  9.000E+00
      21    -1     0     0   502   503  0.000000000E+00  0.000000000E+00 -5.017851797E+01  5.017851797E+01  0.000000000E+00  0.00000E+00  9.000E+00
       6     2     1     2   502     0  8.789834024E+01 -9.539157979E+00  8.963146029E+02  9.169411001E+02  1.720000000E+02  0.00000E+00  9.000E+00
      -6     2     1     2     0   504 -5.638110992E+01  2.738329497E+01  1.755354390E+02  2.536244561E+02  1.720000000E+02  0.00000E+00  9.000E+00
      24     2     3     3     0     0  7.208203780E+01  4.063159422E+01  7.883950887E+02  7.967893467E+02  8.037226252E+01  0.00000E+00  9.000E+00
     -24     2     4     4     0     0  1.342356902E+01  6.472696925E+01  9.080885513E+01  1.375710213E+02  7.943402917E+01  0.00000E+00  9.000E+00
     -11     1     5     5     0     0  8.839256921E+01  2.567797464E+01  5.855024930E+02  5.926936595E+02  1.525878906E-05  0.00000E+00  9.000E+00
      12     1     5     5     0     0 -1.631053141E+01  1.495361957E+01  2.028925956E+02  2.040956872E+02  3.814697266E-06  0.00000E+00  9.000E+00
      13     1     6     6     0     0 -2.188159756E+01  7.679297882E+00  5.885974189E+01  6.326330013E+01  9.536743164E-07  0.00000E+00  9.000E+00
     -14     1     6     6     0     0  3.530516658E+01  5.704767136E+01  3.194911324E+01  7.430772121E+01  1.752011592E-06  0.00000E+00  9.000E+00
       5     1     3     3   502     0  1.581630243E+01 -5.017075220E+01  1.079195142E+02  1.201517534E+02  4.750000000E+00  0.00000E+00  9.000E+00
      -5     1     4     4     0   504 -6.980467894E+01 -3.734367428E+01  8.472658386E+01  1.160534348E+02  4.750000000E+00  0.00000E+00  9.000E+00
       2     1     1     2   504     0 -3.151723032E+01 -1.784413699E+01  3.987320253E+02  4.003735469E+02  5.394796609E-06  0.00000E+00  9.000E+00
</event>
<event>
     13  10001  1.00000E+00  3.94758E+01 -1.00000E+00  1.48518E-01
      21    -1     0     0   511   503  0.000000000E+00  0.000000000E+00  4.292959872E+02  4.292959872E+02  0.000000000E+00  0.00000E+00  9.000E+00
      21    -1     0     0   503   504  0.000000000E+00  0.000000000E+00 -3.303623400E+02  3.303623400E+02  0.000000000E+00  0.00000E+00  9.000E+00
       6     2     1     2   502     0  1.675632388E+01  6.704043157E+01  4.472295117E+01  1.906812424E+02  1.720000000E+02  0.00000E+00  9.000E+00
      -6     2     1     2     0   504 -2.433677067E+01 -2.829930669E+01 -2.257471765E+02  2.862497456E+02  1.720000000E+02  0.00000E+00  9.000E+00
      24     2     3     3     0     0  4.606917428E+00 -3.696947103E+01  1.169988472E+01  8.077786062E+01  7.071216294E+01  0.00000E+00  9.000E+00
     -24     2     4     4     0     0 -8.001537814E+01 -3.060597072E+01 -1.587159401E+02  1.989503918E+02  8.397215346E+01  0.00000E+00  9.000E+00
     -11     1     5     5     0     0 -2.158562774E+01 -4.562219966E+00 -1.892358162E+01  2.906639154E+01  2.384185791E-07  0.00000E+00  9.000E+00
      12     1     5     5     0     0  2.619254517E+01 -3.240725106E+01  3.062346634E+01  5.171146908E+01  1.719260824E-06  0.00000E+00  9.000E+00
      13     1     6     6     0     0 -5.765780408E+01  1.514417918E+01 -1.232070065E+02  1.368712350E+02  1.907348633E-06  0.00000E+00  9.000E+00
     -14     1     6     6     0     0 -2.235757407E+01 -4.575014990E+01 -3.550893366E+01  6.207915676E+01  1.651812370E-06  0.00000E+00  9.000E+00
       5     1     3     3   502     0  1.214940645E+01  1.040099026E+02  3.302306645E+01  1.099033818E+02  4.750000000E+00  0.00000E+00  9.000E+00
      -5     1     4     4     0   504  5.567860748E+01  2.306664033E+00 -6.703123637E+01  8.729935383E+01  4.750000000E+00  0.00000E+00  9.000E+00
      21     1     1     2   511   502  7.580446790E+00 -3.874112488E+01  2.799578725E+02  2.827273392E+02  0.000000000E+00  0.00000E+00  9.000E+00
</event>
<event>
     13  10001  1.00000E+00  1.05578E+02 -1.00000E+00  1.25123E-01
      21    -1     0     0   503   504  0.000000000E+00  0.000000000E+00  6.394604909E+02  6.394604909E+02  0.000000000E+00  0.00000E+00  9.000E+00
      21    -1     0     0   512   503  0.000000000E+00  0.000000000E+00 -2.658988643E+02  2.658988643E+02  0.000000000E+00  0.00000E+00  9.000E+00
       6     2     1     2   502     0 -5.484853631E+00  1.683935681E+01 -1.574331548E+01  1.736245937E+02  1.720000000E+02  0.00000E+00  9.000E+00
      -6     2     1     2     0   504 -3.979909939E+01  7.853449722E+01  5.252174929E+02  5.596329605E+02  1.720000000E+02  0.00000E+00  9.000E+00
      24     2     3     3     0     0 -1.637218162E+01 -5.821882457E+01 -1.749642556E+01  9.761209212E+01  7.459568188E+01  0.00000E+00  9.000E+00
     -24     2     4     4     0     0  2.870217149E+01 -5.141812847E+00  2.430325650E+02  2.573995324E+02  7.962059252E+01  0.00000E+00  9.000E+00
     -11     1     5     5     0     0 -7.282952692E-01  1.401955492E+01 -1.907295226E+01  2.368239519E+01  6.743495762E-07  0.00000E+00  9.000E+00
      12     1     5     5     0     0 -1.564388635E+01 -7.223837949E+01  1.576526703E+00  7.392969693E+01  2.378871329E-06  0.00000E+00  9.000E+00
      13     1     6     6     0     0  3.565012220E+01  1.691554667E+01  5.358850656E+01  6.654919208E+01  1.348699152E-06  0.00000E+00  9.000E+00
     -14     1     6     6     0     0 -6.947950706E+00 -2.205735952E+01  1.894440585E+02  1.908503403E+02  2.697398305E-06  0.00000E+00  9.000E+00
       5     1     3     3   502     0  1.088732799E+01  7.505818138E+01  1.753110081E+00  7.601250159E+01  4.750000000E+00  0.00000E+00  9.000E+00
      -5     1     4     4     0   504 -6.850127088E+01  8.367631007E+01  2.821849279E+02  3.022334280E+02  4.750000000E+00  0.00000E+00  9.000E+00
      21     1     1     2   512   502  4.528395302E+01 -9.537385403E+01 -1.359125509E+02  1.721018010E+02  0.000000000E+00  0.00000E+00  9.000E+00
</event>
<event>
     13  10001  1.00000E+00  6.27429E+01 -1.00000E+00  1.36472E-01
       1    -1     0     0   502     0  0.000000000E+00  0.000000000E+00  5.663085890E+02  5.663085890E+02  0.000000000E+00  0.00000E+00  9.000E+00
      21    -1     0     0   503   504  0.000000000E+00  0.000000000E+00 -3.592882230E+02  3.592882230E+02  0.000000000E+00  0.00000E+00  9.000E+00
       6     2     1     2   502     0 -2.238657431E+01  4.218816139E+01 -2.963919183E+02  3.459959088E+02  1.720000000E+02  0.00000E+00  9.000E+00
      -6     2     1     2     0   504  2.459122024E+01 -1.048922778E+02  2.692266848E+02  3.371559370E+02  1.720000000E+02  0.00000E+00  9.000E+00
      24     2     3     3     0     0 -6.882006374E+01  1.318529666E+01 -2.581500740E+02  2.790464035E+02  7.946937389E+01  0.00000E+00  9.000E+00
     -24     2     4     4     0     0  4.978888061E+01 -1.261851302E+02  1.591654136E+02  2.221587476E+02  7.496172709E+01  0.00000E+00  9.000E+00
     -11     1     5     5     0     0 -5.974612629E+01  4.298026437E+01 -1.609858658E+02  1.770122926E+02  1.907348633E-06  0.00000E+00  9.000E+00
      12     1     5     5     0     0 -9.073937445E+00 -2.979496771E+01 -9.716420814E+01  1.020341109E+02  3.015782986E-06  0.00000E+00  9.000E+00
      13     1     6     6     0     0 -1.374734596E+01 -3.659265294E+00  2.965504096E+01  3.289074638E+01  4.768371582E-07  0.00000E+00  9.000E+00
     -14     1     6     6     0     0  6.353622657E+01 -1.225258650E+02  1.295103727E+02  1.892680013E+02  2.697398305E-06  0.00000E+00  9.000E+00
       5     1     3     3   502     0  4.643348942E+01  2.900286473E+01 -3.824184430E+01  6.694950529E+01  4.750000000E+00  0.00000E+00  9.000E+00
      -5     1     4     4     0   504 -2.519766037E+01  2.129285244E+01  1.100612712E+02  1.149971894E+02  4.750000000E+00  0.00000E+00  9.000E+00
       1     1     1     2   503     0 -2.204645928E+00  6.270411642E+01  2.341855995E+02  2.424449663E+02  3.814697266E-06  0.00000E+00  9.000E+00
</event>
<event>
     13  10001  1.00000E+00  9.39395E+01 -1.00000E+00  1.27499E-01
      21    -1     0     0   503   504  0.000000000E+00  0.000000000E+00  8.274888214E+01  8.274888214E+01  0.000000000E+00  0.00000E+00  9.000E+00
       2    -1     0     0   502     0  0.000000000E+00  0.000000000E+00 -9.835562626E+02  9.835562626E+02  0.000000000E+00  0.00000E+00  9.000E+00
       6     2     1     2   502     0  9.135714797E+00 -6.978564215E+01 -1.776126716E+02  2.570676142E+02  1.720000000E+02  0.00000E+00  9.000E+00
      -6     2     1     2     0   504  6.580002868E+01  1.264359810E+02 -2.904620263E+02  3.664258312E+02  1.720000000E+02  0.00000E+00  9.000E+00
      24     2     3     3     0     0 -2.820876813E+01  2.838910752E+00 -1.473794630E+02  1.698578355E+02  7.954359913E+01  0.00000E+00  9.000E+00
     -24     2     4     4     0     0 -2.791357057E+01  8.470324282E+01 -1.521557999E+02  1.941613982E+02  8.120008834E+01  0.00000E+00  9.000E+00
     -11     1     5     5     0     0 -1.731703875E+01 -1.844046425E+01 -1.434119862E+02  1.456259878E+02  3.814697266E-06  0.00000E+00  9.000E+00
      12     1     5     5     0     0 -1.089172938E+01  2.127937501E+01 -3.967476798E+00  2.423184767E+01  4.655271575E-07  0.00000E+00  9.000E+00
      13     1     6     6     0     0  3.231413786E+00 -9.712602796E+00 -5.215105469E+01  5.314611174E+01  6.743495762E-07  0.00000E+00  9.000E+00
     -14     1     6     6     0     0 -3.114498435E+01  9.441584561E+01 -1.000047452E+02  1.410152865E+02  3.303624740E-06  0.00000E+00  9.000E+00
       5     1     3     3   502     0  3.734448293E+01 -7.262455290E+01 -3.023320863E+01  8.720977866E+01  4.750000000E+00  0.00000E+00  9.000E+00
      -5     1     4     4     0   504  9.371359925E+01  4.173273815E+01 -1.383062263E+02  1.722644330E+02  4.750000000E+00  0.00000E+00  9.000E+00
       2     1     1     2   503     0 -7.493574348E+01 -5.665033882E+01 -4.327326826E+02  4.428116994E+02  7.629394531E-06  0.00000E+00  9.000E+00
</event>
<event>
     13  10001  1.00000E+00  8.85075E+00 -1.00000E+00  2.08746E-01
      -1    -1     0     0     0   512  0.000000000E+00  0.000000000E+00  4.490851828E+02  4.490851828E+02  0.000000000E+00  0.00000E+00  9.000E+00
       1    -1     0     0   511     0  0.000000000E+00  0.000000000E+00 -2.632730488E+02  2.632730488E+02  0.000000000E+00  0.00000E+00  9.000E+00
       6     2     1     2   502     0 -4.282200505E+01 -1.784719762E+02 -6.360823612E+01  2.594532291E+02  1.720000000E+02  0.00000E+00  9.000E+00
      -6     2     1     2     0   512  3.936103173E+01  1.703259732E+02  3.079715857E+02  3.936886150E+02  1.720000000E+02  0.00000E+00  9.000E+00
      24     2     3     3     0     0  1.758775094E+01 -8.019970387E+01  2.035857977E+01  1.166955085E+02  8.038686740E+01  0.00000E+00  9.000E+00
     -24     2     4     4     0     0  3.811736891E+00  1.084766528E+02  2.897902221E+02  3.199172433E+02  8.116006518E+01  0.00000E+00  9.000E+00
     -11     1     5     5     0     0 -6.565500740E+00  1.428059746E+01  9.997924093E+00  1.862792930E+01  7.907449699E-07  0.00000E+00  9.000E+00
      12     1     5     5     0     0  2.415325168E+01 -9.448030133E+01  1.036065568E+01  9.806757921E+01  1.743881564E-06  0.00000E+00  9.000E+00
      13     1     6     6     0     0  3.805468361E+01  4.009405267E+01  1.598943196E+02  1.691800385E+02  3.814697266E-06  0.00000E+00  9.000E+00
     -14     1     6     6     0     0 -3.424294672E+01  6.838260018E+01  1.298959026E+02  1.507372048E+02  3.303624740E-06  0.00000E+00  9.000E+00
       5     1     3     3   502     0 -6.040975600E+01 -9.827227229E+01 -8.396681589E+01  1.427577206E+02  4.750000000E+00  0.00000E+00  9.000E+00
      -5     1     4     4     0   512  3.554929484E+01  6.184932037E+01  1.818136354E+01  7.377137164E+01  4.750000000E+00  0.00000E+00  9.000E+00
      21     1     1     2   511   502  3.460973327E+00  8.146002940E+00 -5.855121558E+01  5.921638748E+01  6.743495762E-07  0.00000E+00  9.000E+00
</event>
<event>
     13  10001  1.00000E+00  9.45659E+00 -1.00000E+00  2.05016E-01
       1    -1     0     0   502     0  0.000000000E+00  0.000000000E+00  2.719944562E+02  2.719944562E+02  0.000000000E+00  0.00000E+00  9.000E+00
      21    -1     0     0   513   512  0.000000000E+00  0.000000000E+00 -2.689312091E+02  2.689312091E+02  0.000000000E+00  0.00000E+00  9.000E+00
       6     2     1     2   502     0 -9.863976655E+01  1.351377193E+02  1.132110907E+02  2.653163353E+02  1.720000000E+02  0.00000E+00  9.000E+00
      -6     2     1     2     0   512  9.434999722E+01 -1.435653482E+02 -1.073624430E+02  2.657510590E+02  1.720000000E+02  0.00000E+00  9.000E+00
      24     2     3     3     0     0 -5.251815581E+01  7.979605906E+01  1.406479153E+02  1.880813421E+02  8.041882521E+01  0.00000E+00  9.000E+00
     -24     2     4     4     0     0  1.225456380E+01 -1.081243181E+02 -1.388803343E+01  1.363070381E+02  8.090543033E+01  0.00000E+00  9.000E+00
     -11     1     5     5     0     0  7.087845810E+00  3.593297578E+01  9.328497639E+01  1.002172796E+02  0.000000000E+00  0.00000E+00  9.000E+00
      12     1     5     5     0     0 -5.960600162E+01  4.386308328E+01  4.736293886E+01  8.786406251E+01  2.132480600E-06  0.00000E+00  9.000E+00
      13     1     6     6     0     0  3.412121100E+01 -5.827588695E+01 -3.719218206E+01  7.709471088E+01  1.581489940E-06  0.00000E+00  9.000E+00
     -14     1     6     6     0     0 -2.186664720E+01 -4.984843114E+01  2.330414863E+01  5.921232718E+01  1.305872339E-06  0.00000E+00  9.000E+00
       5     1     3     3   502     0 -4.612161074E+01  5.534166020E+01 -2.743682456E+01  7.723499319E+01  4.750000000E+00  0.00000E+00  9.000E+00
      -5     1     4     4     0   512  8.209543342E+01 -3.544103012E+01 -9.347440959E+01  1.294440209E+02  4.750000000E+00  0.00000E+00  9.000E+00
       1     1     1     2   513     0  4.289769330E+00  8.427628952E+00 -2.785400569E+00  9.858270994E+00  1.299053116E-07  0.00000E+00  9.000E+00
</event>
<event>
     13  10001  1.00000E+00  1.32419E+01 -1.00000E+00  1.88011E-01
      21    -1     0     0   502   503  0.000000000E+00  0.000000000E+00  3.566988416E+02  3.566988416E+02  0.000000000E+00  0.00000E+00  9.000E+00
      21    -1     0     0   511   504  0.000000000E+00  0.000000000E+00 -1.610199298E+02  1.610199298E+02  0.000000000E+00  0.00000E+00  9.000E+00
       6     2     1     2   502     0 -1.450566125E+02 -5.307048237E+00  1.381765746E+02  2.640953452E+02  1.720000000E+02  0.00000E+00  9.000E+00
      -6     2     1     2     0   504  1.498287649E+02 -7.045042617E+00  6.638922844E+01  2.376758740E+02  1.720000000E+02  0.00000E+00  9.000E+00
      24     2     3     3     0     0 -1.554209692E+02  2.384892832E+01  7.149247315E+01  1.904283734E+02  8.017070915E+01  0.00000E+00  9.000E+00
     -24     2     4     4     0     0  1.972967127E+01 -1.245271190E+00 -6.877789585E+00  8.817660996E+01  8.565628947E+01  0.00000E+00  9.000E+00
     -11     1     5     5     0     0 -8.109767789E+01 -2.459853745E+00  7.638550079E+01  1.114344156E+02  9.536743164E-07  0.00000E+00  9.000E+00
      12     1     5     5     0     0 -7.432329136E+01  2.630878207E+01 -4.893027638E+00  7.899395782E+01  2.393109786E-06  0.00000E+00  9.000E+00
      13     1     6     6     0     0  4.565921571E+01  2.036448190E+01 -1.721450781E+01  5.287547051E+01  1.668930054E-06  0.00000E+00  9.000E+00
     -14     1     6     6     0     0 -2.592954444E+01 -2.160975309E+01  1.033671822E+01  3.530113945E+01  1.039242493E-06  0.00000E+00  9.000E+00
       5     1     3     3   502     0  1.036435671E+01 -2.915597656E+01  6.668410140E+01  7.366697183E+01  4.750000000E+00  0.00000E+00  9.000E+00
      -5     1     4     4     0   504  1.300990936E+02 -5.799771427E+00  7.326701802E+01  1.494992640E+02  4.750000000E+00  0.00000E+00  9.000E+00
      21     1     1     2   511   503 -4.772152369E+00  1.235209085E+01 -8.886891248E+00  1.594755225E+01  2.665600750E-07  0.00000E+00  9.000E+00
</event>
<event>
     13  10001  1.00000E+00  6.43366E+00 -1.00000E+00  2.28906E-01
      21    -1     0     0   503   504  0.000000000E+00  0.000000000E+00  1.366472488E+03  1.366472488E+03  0.000000000E+00  0.00000E+00  9.000E+00
      21    -1     0     0   512   503  0.000000000E+00  0.000000000E+00 -2.051923684E+02  2.051923684E+02  0.000000000E+00  0.00000E+00  9.000E+00
       6     2     1     2   502     0  1.170305209E+02 -1.454510137E+02  1.155695966E+02  2.789130184E+02  1.720000000E+02  0.00000E+00  9.000E+00
      -6     2     1     2     0   504 -1.105992321E+02  1.456254981E+02  1.155660760E+03  1.182613533E+03  1.720000000E+02  0.00000E+00  9.000E+00
      24     2     3     3     0     0  8.724193741E+01 -1.751056089E+02  9.438712188E+01  2.316053609E+02  8.036780767E+01  0.00000E+00  9.000E+00
     -24     2     4     4     0     0 -1.281490364E+02  6.722601284E+01  8.802212354E+02  8.956571439E+02  8.044118267E+01  0.00000E+00  9.000E+00
     -11     1     5     5     0     0  9.241991838E+01 -1.013085825E+02  5.454746168E+01  1.475814886E+02  1.651812370E-06  0.00000E+00  9.000E+00
      12     1     5     5     0     0 -5.177980970E+00 -7.379702638E+01  3.983966020E+01  8.402387229E+01  2.236564522E-06  0.00000E+00  9.000E+00
      13     1     6     6     0     0 -5.073120357E+01 -7.075389936E+00  4.189335358E+02  4.220533421E+02  5.394796609E-06  0.00000E+00  9.000E+00
     -14     1     6     6     0     0 -7.741783285E+01  7.430140277E+01  4.612876996E+02  4.736038018E+02  7.629394531E-06  0.00000E+00  9.000E+00
       5     1     3     3   502     0  2.978858349E+01  2.965459525E+01  2.118247472E+01  4.730765753E+01  4.750000000E+00  0.00000E+00  9.000E+00
      -5     1     4     4     0   504  1.754980432E+01  7.839948530E+01  2.754395244E+02  2.869563887E+02  4.750000000E+00  0.00000E+00  9.000E+00
      21     1     1     2   512   502 -6.431288801E+00 -1.744844691E-01 -1.099502364E+02  1.101383058E+02  3.015782986E-06  0.00000E+00  9.000E+00
</event>
<event>
     13  10001  1.00000E+00  4.58572E+00 -1.00000E+00  2.60688E-01
      21    -1     0     0   502   503  0.000000000E+00  0.000000000E+00  6.933129710E+02  6.933129710E+02  0.000000000E+00  0.00000E+00  9.000E+00
      21    -1     0     0   503   511  0.000000000E+00  0.000000000E+00 -1.186999961E+02  1.186999961E+02  0.000000000E+00  0.00000E+00  9.000E+00
       6     2     1     2   502     0  1.544469442E+01 -3.184139913E+01  4.877606772E+02  5.184080358E+02  1.720000000E+02  0.00000E+00  9.000E+00
      -6     2     1     2     0   504 -1.242899440E+01  2.838677948E+01  1.499863429E+02  2.303045640E+02  1.720000000E+02  0.00000E+00  9.000E+00
      24     2     3     3     0     0  4.737165589E+01 -7.789539002E+00  4.616048615E+02  4.704027023E+02  7.677827455E+01  0.00000E+00  9.000E+00
     -24     2     4     4     0     0 -4.554780397E+01 -2.634333528E+01  5.489504357E+01  1.155999054E+02  8.707065263E+01  0.00000E+00  9.000E+00
     -11     1     5     5     0     0 -1.761638163E+01 -1.749860499E+01  1.301046733E+02  1.324528750E+02  5.394796609E-06  0.00000E+00  9.000E+00
      12     1     5     5     0     0  6.498803752E+01  9.709065987E+00  3.315001883E+02  3.379498273E+02  7.629394531E-06  0.00000E+00  9.000E+00
      13     1     6     6     0     0 -5.675986634E+01 -7.722897560E+00  6.900751471E+01  8.968479615E+01  2.523185073E-06  0.00000E+00  9.000E+00
     -14     1     6     6     0     0  1.121206237E+01 -1.862043772E+01 -1.411247114E+01  2.591510921E+01  8.429369702E-07  0.00000E+00  9.000E+00
       5     1     3     3   502     0 -3.192696147E+01 -2.405186013E+01  2.615581568E+01  4.800533343E+01  4.750000000E+00  0.00000E+00  9.000E+00
      -5     1     4     4     0   504  3.311880957E+01  5.473011476E+01  9.509129936E+01  1.147046587E+02  4.750000000E+00  0.00000E+00  9.000E+00
      21     1     1     2   504   511 -3.015700018E+00  3.454619647E+00 -6.313404524E+01  6.330036739E+01  2.132480600E-06  0.00000E+00  9.000E+00
</event>
<event>
     13  10001  1.00000E+00  1.92075E+01 -1.00000E+00  1.72327E-01
      21    -1     0     0   502   512  0.000000000E+00  0.000000000E+00  8.144372124E+02  8.144372124E+02  0.000000000E+00  0.00000E+00  9.000E+00
      21    -1     0     0   503   504  0.000000000E+00  0.000000000E+00 -1.680231844E+02  1.680231844E+02  0.000000000E+00  0.00000E+00  9.000E+00
       6     2     1     2   502     0  1.917091976E+02 -6.494063360E+01  1.228302829E+01  2.659033191E+02  1.720000000E+02  0.00000E+00  9.000E+00
      -6     2     1     2     0   504 -2.107946701E+02  6.710260700E+01  4.411508308E+02  5.226233905E+02  1.720000000E+02  0.00000E+00  9.000E+00
      24     2     3     3     0     0  2.077211461E+02 -4.003812814E+01  3.341919068E+01  2.292179387E+02  8.168778907E+01  0.00000E+00  9.000E+00
     -24     2     4     4     0     0 -1.030915513E+02 -5.329897366E-02  1.181900162E+02  1.755843037E+02  7.894996509E+01  0.00000E+00  9.000E+00
     -11     1     5     5     0     0  1.187626518E+02  3.615529868E+00  4.970704719E+01  1.287960794E+02  2.336015456E-06  0.00000E+00  9.000E+00
      12     1     5     5     0     0  8.895849424E+01 -4.365365801E+01 -1.628785652E+01  1.004218593E+02  1.980453459E-06  0.00000E+00  9.000E+00
      13     1     6     6     0     0 -3.829008873E+01  2.909571747E+01  1.515099715E+01  5.042067417E+01  1.625797951E-06  0.00000E+00  9.000E+00
     -14     1     6     6     0     0 -6.480146262E+01 -2.914901644E+01  1.030390190E+02  1.251636296E+02  2.697398305E-06  0.00000E+00  9.000E+00
       5     1     3     3   502     0 -1.601194853E+01 -2.490250546E+01 -2.113616238E+01  3.668538039E+01  4.750000000E+00  0.00000E+00  9.000E+00
      -5     1     4     4     0   504 -1.077031188E+02  6.715590597E+01  3.229608146E+02  3.470390868E+02  4.750000000E+00  0.00000E+00  9.000E+00
      21     1     1     2   503   512  1.908547258E+01 -2.161973394E+00  1.929801690E+02  1.939336871E+02  2.697398305E-06  0.00000E+00  9.000E+00
</event>
<event>
     13  10001  1.00000E+00  8.60983E+00 -1.00000E+00  2.10342E-01
      21    -1     0     0   502   511  0.000000000E+00  0.000000000E+00  3.173091630E+02  3.173091630E+02  0.000000000E+00  0.00000E+00  9.000E+00
      21    -1     0     0   503   504  0.000000000E+00  0.000000000E+00 -1.649453527E+02  1.649453527E+02  0.000000000E+00  0.00000E+00  9.000E+00
       6     2     1     2   502     0 -2.737380791E+01  1.767933068E+01  2.608103377E+00  1.750790858E+02  1.720000000E+02  0.00000E+00  9.000E+00
      -6     2     1     2     0   504  3.112453375E+01 -2.542924914E+01  2.071069660E+01  1.778435162E+02  1.720000000E+02  0.00000E+00  9.000E+00
      24     2     3     3     0     0 -5.820419179E+01  8.221155652E+00 -5.062566659E+01  1.126582046E+02  8.169209026E+01  0.00000E+00  9.000E+00
     -24     2     4     4     0     0  7.532890850E+01 -4.824126871E+01 -8.925958122E+00  1.197461085E+02  7.910621536E+01  0.00000E+00  9.000E+00
     -11     1     5     5     0     0 -6.040167341E+01 -2.620102845E+01 -2.897053900E+01  7.193155200E+01  2.023048729E-06  0.00000E+00  9.000E+00
      12     1     5     5     0     0  2.197481624E+00  3.442218410E+01 -2.165512759E+01  4.072665264E+01  7.907449699E-07  0.00000E+00  9.000E+00
      13     1     6     6     0     0 -1.134159774E+01 -2.594062329E+01  6.201951676E+00  2.898296018E+01  6.194296387E-07  0.00000E+00  9.000E+00
     -14     1     6     6     0     0  8.667050623E+01 -2.230064541E+01 -1.512790980E+01  9.076314831E+01  1.951540177E-06  0.00000E+00  9.000E+00
       5     1     3     3   502     0  3.083038388E+01  9.458175028E+00  5.323376997E+01  6.242088120E+01  4.750000000E+00  0.00000E+00  9.000E+00
      -5     1     4     4     0   504 -4.420437475E+01  2.281201957E+01  2.963665472E+01  5.809740775E+01  4.750000000E+00  0.00000E+00  9.000E+00
      21     1     1     2   503   511 -3.750725833E+00  7.749918458E+00  1.290450104E+02  1.293319136E+02  3.303624740E-06  0.00000E+00  9.000E+00
</event>
<event>
     13  10001  1.00000E+00  2.24327E+01 -1.00000E+00  1.66552E-01
      -3    -1     0     0     0   513  0.000000000E+00  0.000000000E+00  5.768513261E+02  5.768513261E+02  0.000000000E+00  0.00000E+00  9.000E+00
       3    -1     0     0   502     0  0.000000000E+00  0.000000000E+00 -7.479907942E+01  7.479907942E+01  0.000000000E+00  0.00000E+00  9.000E+00
       6     2     1     2   502     0 -3.564316184E+01  4.297364797E+01  3.218333150E+02  3.691583022E+02  1.720000000E+02  0.00000E+00  9.000E+00
      -6     2     1     2     0   512  4.462032882E+01 -6.353174560E+01  1.350375855E+02  2.320482836E+02  1.720000000E+02  0.00000E+00  9.000E+00
      24     2     3     3     0     0  2.973467147E+00  8.578012738E+01  2.616190698E+02  2.856600594E+02  7.609244449E+01  0.00000E+00  9.000E+00
     -24     2     4     4     0     0  1.500026912E+01 -1.053329082E+02  1.128869493E+02  1.760313370E+02  8.320780399E+01  0.00000E+00  9.000E+00
     -11     1     5     5     0     0 -1.426874862E+01 -7.857352154E+00  1.899476012E+01  2.502271132E+01  1.305872339E-06  0.00000E+00  9.000E+00
      12     1     5     5     0     0  1.724221576E+01  9.363747954E+01  2.426243097E+02  2.606373481E+02  4.672030912E-06  0.00000E+00  9.000E+00
      13     1     6     6     0     0  2.112004244E+01 -3.960181128E+01  9.881901113E+01  1.085336658E+02  0.000000000E+00  0.00000E+00  9.000E+00
     -14     1     6     6     0     0 -6.119773325E+00 -6.573109693E+01  1.406793817E+01  6.749767117E+01  1.130918620E-06  0.00000E+00  9.000E+00
       5     1     3     3   502     0 -3.861662898E+01 -4.280647942E+01  6.021424522E+01  8.349824275E+01  4.750000000E+00  0.00000E+00  9.000E+00
      -5     1     4     4     0   512  2.962005971E+01  4.180116260E+01  2.215063620E+01  5.601694669E+01  4.750000000E+00  0.00000E+00  9.000E+00
      21     1     1     2   512   513 -8.977166988E+00  2.055809764E+01  4.518134611E+01  5.044381966E+01  6.743495762E-07  0.00000E+00  9.000E+00
</event>
<event>
     13  10001  1.00000E+00  6.05470E+01 -1.00000E+00  1.37327E-01
       1    -1     0     0   502     0  0.000000000E+00  0.000000000E+00  1.194925657E+03  1.194925657E+03  0.000000000E+00  0.00000E+00  9.000E+00
      -1    -1     0     0     0   511  0.000000000E+00  0.000000000E+00 -3.801908336E+01  3.801908336E+01  0.000000000E+00  0.00000E+00  9.000E+00
       6     2     1     2   502     0 -2.126630008E+00  8.372179768E+01  5.567365857E+02  5.886879376E+02  1.720000000E+02  0.00000E+00  9.000E+00
      -6     2     1     2     0   512  6.090062644E+00 -2.330467361E+01  4.436674337E+02  4.764504050E+02  1.720000000E+02  0.00000E+00  9.000E+00
      24     2     3     3     0     0  4.345913576E+01  7.844734875E+00  3.759667078E+02  3.873531369E+02  8.210512127E+01  0.00000E+00  9.000E+00
     -24     2     4     4     0     0  4.749497299E+01 -5.238248713E+01  1.933479782E+02  2.210247247E+02  8.042879361E+01  0.00000E+00  9.000E+00
     -11     1     5     5     0     0 -2.183595169E+01 -1.194981479E+01  1.088993857E+02  1.117080260E+02  1.348699152E-06  0.00000E+00  9.000E+00
      12     1     5     5     0     0  6.529508746E+01  1.979454967E+01  2.670673221E+02  2.756451109E+02  3.814697266E-06  0.00000E+00  9.000E+00
      13     1     6     6     0     0  1.307294719E+01 -5.893975151E+01  6.828863663E+01  9.114896680E+01  1.348699152E-06  0.00000E+00  9.000E+00
     -14     1     6     6     0     0  3.442202579E+01  6.557264383E+00  1.250593416E+02  1.298757579E+02  2.336015456E-06  0.00000E+00  9.000E+00
       5     1     3     3   502     0 -4.558576577E+01  7.587706281E+01  1.807698779E+02  2.013348007E+02  4.750000000E+00  0.00000E+00  9.000E+00
      -5     1     4     4     0   512 -4.140491034E+01  2.907781352E+01  2.503194555E+02  2.554256802E+02  4.750000000E+00  0.00000E+00  9.000E+00
      21     1     1     2   512   511 -3.963432636E+00 -6.041712407E+01  1.565025546E+02  1.678063982E+02  1.907348633E-06  0.00000E+00  9.000E+00
</event>
<event>
     13  10001  1.00000E+00  5.08824E+01 -1.00000E+00  1.41661E-01
      21    -1     0     0   503   504  0.000000000E+00  0.000000000E+00  7.989236777E+02  7.989236777E+02  0.000000000E+00  0.00000E+00  9.000E+00
       2    -1     0     0   502     0  0.000000000E+00  0.000000000E+00 -8.315708683E+01  8.315708683E+01  0.000000000E+00  0.00000E+00  9.000E+00
       6     2     1     2   502     0  6.998154979E+01  1.420244536E+00  1.139035205E+02  2.178473006E+02  1.720000000E+02  0.00000E+00  9.000E+00
      -6     2     1     2     0   504 -7.180532336E+01 -5.226999534E+01  5.749690521E+02  6.066807791E+02  1.720000000E+02  0.00000E+00  9.000E+00
      24     2     3     3     0     0  1.555133553E+01 -5.169968649E+01  2.379739833E+01  9.983861006E+01  8.054024008E+01  0.00000E+00  9.000E+00
     -24     2     4     4     0     0 -8.275408330E+01  1.479543945E+01  2.762557963E+02  3.002989592E+02  8.243213313E+01  0.00000E+00  9.000E+00
     -11     1     5     5     0     0  3.681865046E+00 -1.183488131E+01  4.944354224E+01  5.097336967E+01  0.000000000E+00  0.00000E+00  9.000E+00
      12     1     5     5     0     0  1.186947049E+01 -3.986480517E+01 -2.564614391E+01  4.886524039E+01  1.011524364E-06  0.00000E+00  9.000E+00
      13     1     6     6     0     0 -7.732103289E+01 -1.299979787E+01  2.487685250E+02  2.608319687E+02  4.672030912E-06  0.00000E+00  9.000E+00
     -14     1     6     6     0     0 -5.433050408E+00  2.779523732E+01  2.748727132E+01  3.946699050E+01  1.215700987E-06  0.00000E+00  9.000E+00
       5     1     3     3   502     0  5.443021426E+01  5.311993102E+01  9.010612216E+01  1.180086906E+02  4.750000000E+00  0.00000E+00  9.000E+00
      -5     1     4     4     0   504  1.094875994E+01 -6.706543479E+01  2.987132558E+02  3.063818199E+02  4.750000000E+00  0.00000E+00  9.000E+00
       2     1     1     2   503     0  1.823773567E+00  5.084975081E+01  2.689401828E+01  5.755268479E+01  7.539457465E-07  0.00000E+00  9.000E+00
</event>
<event>
     13  10001  1.00000E+00  4.20539E+01 -1.00000E+00  1.46746E-01
      21    -1     0     0   503   504  0.000000000E+00  0.000000000E+00  1.249818674E+02  1.249818674E+02  0.000000000E+00  0.00000E+00  9.000E+00
      21    -1     0     0   511   503  0.000000000E+00  0.000000000E+00 -4.061832502E+02  4.061832502E+02  0.000000000E+00  0.00000E+00  9.000E+00
       6     2     1     2   502     0 -4.239702643E+01 -7.253919438E+01 -5.578853423E+01  1.993885732E+02  1.720000000E+02  0.00000E+00  9.000E+00
      -6     2     1     2     0   504  1.184418970E+01  4.364182028E+01 -1.104214784E+02  2.093365620E+02  1.720000000E+02  0.00000E+00  9.000E+00
      24     2     3     3     0     0  1.011954571E+00 -7.357795773E+01 -9.151738210E+01  1.429569178E+02  8.152612590E+01  0.00000E+00  9.000E+00
     -24     2     4     4     0     0 -1.497178198E+01  8.604177604E+01 -4.761593127E+01  1.288135725E+02  8.184325310E+01  0.00000E+00  9.000E+00
     -11     1     5     5     0     0  3.258174007E+01 -1.095756137E+01 -1.080249409E+01  3.603237177E+01  8.596304120E-07  0.00000E+00  9.000E+00
      12     1     5     5     0     0 -3.156978550E+01 -6.262039636E+01 -8.071488801E+01  1.069245460E+02  9.536743164E-07  0.00000E+00  9.000E+00
      13     1     6     6     0     0 -1.989169371E+00 -4.455987702E+00  1.646172231E+01  1.716976769E+01  4.129530925E-07  0.00000E+00  9.000E+00
     -14     1     6     6     0     0 -1.298261261E+01  9.049776374E+01 -6.407765358E+01  1.116438048E+02  0.000000000E+00  0.00000E+00  9.000E+00
       5     1     3     3   502     0 -4.340898101E+01  1.038763348E+00  3.572884787E+01  5.643165540E+01  4.750000000E+00  0.00000E+00  9.000E+00
      -5     1     4     4     0   504  2.681597168E+01 -4.239995575E+01 -6.280554716E+01  8.052298951E+01  4.750000000E+00  0.00000E+00  9.000E+00
      21     1     1     2   511   502  3.055283674E+01  2.889737410E+01 -1.149913702E+02  1.224399823E+02  1.348699152E-06  0.00000E+00  9.000E+00
</event>
<event>
     13  10001  1.00000E+00  2.29754E+01 -1.00000E+00  1.65698E-01
      21    -1     0     0   512   503  0.000000000E+00  0.000000000E+00  6.407027115E+02  6.407027115E+02  0.000000000E+00  0.00000E+00  9.000E+00
      21    -1     0     0   503   504  0.000000000E+00  0.000000000E+00 -2.405935735E+02  2.405935735E+02  0.000000000E+00  0.00000E+00  9.000E+00
       6     2     1     2   502     0 -1.771058790E+01  9.843385480E+01  9.131931940E+01  2.189203206E+02  1.720000000E+02  0.00000E+00  9.000E+00
      -6     2     1     2     0   504  2.841849817E+00 -1.159493268E+02 -1.155181978E+02  2.374463655E+02  1.720000000E+02  0.00000E+00  9.000E+00
      24     2     3     3     0     0  5.264161047E+01  4.189350387E+01  1.786295106E+01  1.024529705E+02  7.517527070E+01  0.00000E+00  9.000E+00
     -24     2     4     4     0     0  5.859483163E+01 -1.091569012E+02 -6.764059843E+01  1.634912505E+02  8.249578805E+01  0.00000E+00  9.000E+00
     -11     1     5     5     0     0  1.284918757E+00 -1.045606155E+01  2.658992417E+01  2.860077458E+01  7.539457465E-07  0.00000E+00  9.000E+00
      12     1     5     5     0     0  5.135669171E+01  5.234956542E+01 -8.726973106E+00  7.385219592E+01  1.638856779E-06  0.00000E+00  9.000E+00
      13     1     6     6     0     0  3.461449004E+00 -2.692942578E-01 -3.765107479E+01  3.781081302E+01  4.768371582E-07  0.00000E+00  9.000E+00
     -14     1     6     6     0     0  5.513338263E+01 -1.088876069E+02 -2.998952364E+01  1.256804374E+02  1.118282261E-06  0.00000E+00  9.000E+00
       5     1     3     3   502     0 -7.035219837E+01  5.654035093E+01  7.345636833E+01  1.164673501E+02  4.750000000E+00  0.00000E+00  9.000E+00
      -5     1     4     4     0   504 -5.575298182E+01 -6.792425568E+00 -4.787759937E+01  7.395511509E+01  4.750000000E+00  0.00000E+00  9.000E+00
      21     1     1     2   512   502  1.486873808E+01  1.751547197E+01  4.243080164E+02  4.249295988E+02  7.629394531E-06  0.00000E+00  9.000E+00
</event>
<event>
     13  10001  1.00000E+00  2.28232E+02 -1.00000E+00  1.11456E-01
       3    -1     0     0   502     0  0.000000000E+00  0.000000000E+00  4.467912847E+02  4.467912847E+02  0.000000000E+00  0.00000E+00  9.000E+00
      21    -1     0     0   511   512  0.000000000E+00  0.000000000E+00 -3.743373332E+02  3.743373332E+02  0.000000000E+00  0.00000E+00  9.000E+00
       6     2     1     2   502     0  1.041481461E+02  2.214608607E+01  1.084171978E+02  2.295115994E+02  1.720000000E+02  0.00000E+00  9.000E+00
      -6     2     1     2     0   512  7.718135843E+01  1.164518522E+02 -2.094666880E+02  3.049234156E+02  1.720000000E+02  0.00000E+00  9.000E+00
      24     2     3     3     0     0 -1.555103908E+00 -1.815167721E+01  6.239850290E+01  1.072930674E+02  8.535998717E+01  0.00000E+00  9.000E+00
     -24     2     4     4     0     0 -5.170279503E-01  7.888825533E+01 -5.860669723E+01  1.310574834E+02  8.670464140E+01  0.00000E+00  9.000E+00
     -11     1     5     5     0     0  1.258432971E+01  3.160014564E+01  1.513608642E+01  3.722950001E+01  4.768371582E-07  0.00000E+00  9.000E+00
      12     1     5     5     0     0 -1.413943362E+01 -4.975182285E+01  4.726241648E+01  7.006356736E+01  1.348699152E-06  0.00000E+00  9.000E+00
      13     1     6     6     0     0  4.080152398E+01  5.534524077E+01 -4.257214376E+01  8.087179644E+01  1.581489940E-06  0.00000E+00  9.000E+00
     -14     1     6     6     0     0 -4.131855193E+01  2.354301456E+01 -1.603455347E+01  5.018568693E+01  8.920806376E-07  0.00000E+00  9.000E+00
       5     1     3     3   502     0  1.057032500E+02  4.029776328E+01  4.601869494E+01  1.222185320E+02  4.750000000E+00  0.00000E+00  9.000E+00
      -5     1     4     4     0   512  7.769838638E+01  3.756359689E+01 -1.508599908E+02  1.738659322E+02  4.750000000E+00  0.00000E+00  9.000E+00
       3     1     1     2   511     0 -1.813295045E+02 -1.385979383E+02  1.735034418E+02  2.866936030E+02  3.303624740E-06  0.00000E+00  9.000E+00
</event>
<event>
     13  10001  1.00000E+00  1.56419E+02 -1.00000E+00  1.17752E-01
       2    -1     0     0   502     0  0.000000000E+00  0.000000000E+00  9.896654195E+02  9.896654195E+02  0.000000000E+00  0.00000E+00  9.000E+00
      21    -1     0     0   503   504  0.000000000E+00  0.000000000E+00 -1.715236954E+02  1.715236954E+02  0.000000000E+00  0.00000E+00  9.000E+00
       6     2     1     2   502     0  5.397296987E+01  5.880838731E+01  2.392254894E+01  1.911224640E+02  1.720000000E+02  0.00000E+00  9.000E+00
      -6     2     1     2     0   504 -2.028242610E+02 -1.068723104E+02  1.850953846E+02  3.411798250E+02  1.720000000E+02  0.00000E+00  9.000E+00
      24     2     3     3     0     0 -5.900176642E+00 -2.676880091E+01 -2.669507510E+00  8.324313889E+01  7.855515970E+01  0.00000E+00  9.000E+00
     -24     2     4     4     0     0 -2.104671137E+02 -1.260660797E+02  1.464982382E+02  2.971444280E+02  8.151082690E+01  0.00000E+00  9.000E+00
     -11     1     5     5     0     0 -2.481190022E+01 -1.426846082E+01  3.129388404E+01  4.240903848E+01  9.536743164E-07  0.00000E+00  9.000E+00
      12     1     5     5     0     0  1.891172358E+01 -1.250034009E+01 -3.396339155E+01  4.083410041E+01  0.000000000E+00  0.00000E+00  9.000E+00
      13     1     6     6     0     0 -9.039315015E+01 -9.324339244E+01  4.816202169E+01  1.385093216E+02  1.784161275E-06  0.00000E+00  9.000E+00
     -14     1     6     6     0     0 -1.200739635E+02 -3.282268727E+01  9.833621648E+01  1.586351064E+02  1.348699152E-06  0.00000E+00  9.000E+00
       5     1     3     3   502     0  5.987314651E+01  8.557718823E+01  2.659205645E+01  1.078793251E+02  4.750000000E+00  0.00000E+00  9.000E+00
      -5     1     4     4     0   504  7.642852660E+00  1.919376931E+01  3.859714646E+01  4.403539703E+01  4.750000000E+00  0.00000E+00  9.000E+00
       2     1     1     2   503     0  1.488512911E+02  4.806392309E+01  6.091237905E+02  6.288868259E+02  0.000000000E+00  0.00000E+00  9.000E+00
</event>
<event>
     13  10001  1.00000E+00  2.34409E+01 -1.00000E+00  1.64989E-01
       1    -1     0     0   502     0  0.000000000E+00  0.000000000E+00  2.905297979E+02  2.905297979E+02  0.000000000E+00  0.00000E+00  9.000E+00
      21    -1     0     0   511   512  0.000000000E+00  0.000000000E+00 -1.748074037E+02  1.748074037E+02  0.000000000E+00  0.00000E+00  9.000E+00
       6     2     1     2   502     0  4.778807241E+01 -2.489057454E+01  5.521052323E+01  1.885084678E+02  1.720000000E+02  0.00000E+00  9.000E+00
      -6     2     1     2     0   512 -7.034339446E+01  3.127267697E+01  1.127328659E+02  2.195879608E+02  1.720000000E+02  0.00000E+00  9.000E+00
      24     2     3     3     0     0  1.669600489E+01  5.253967228E+01  3.294579378E+01  1.020189282E+02  7.926703376E+01  0.00000E+00  9.000E+00
     -24     2     4     4     0     0 -1.140744328E+02  3.594033252E+01  8.000560588E+01  1.645622689E+02  7.984459697E+01  0.00000E+00  9.000E+00
     -11     1     5     5     0     0 -9.579929711E+00 -1.761905876E+01  1.482820030E+01  2.494156789E+01  7.539457465E-07  0.00000E+00  9.000E+00
      12     1     5     5     0     0  2.627593460E+01  7.015873104E+01  1.811759349E+01  7.707736032E+01  1.768159506E-06  0.00000E+00  9.000E+00
      13     1     6     6     0     0 -5.303724432E+01  4.466455572E+01  7.584653685E+01  1.027646290E+02  1.348699152E-06  0.00000E+00  9.000E+00
     -14     1     6     6     0     0 -6.103718843E+01 -8.724223199E+00  4.159069029E+00  6.179763990E+01  1.623611268E-06  0.00000E+00  9.000E+00
       5     1     3     3   502     0  3.109206752E+01 -7.743024682E+01  2.226472945E+01  8.648953962E+01  4.750000000E+00  0.00000E+00  9.000E+00
      -5     1     4     4     0   512  4.373103829E+01 -4.667655550E+00  3.272726001E+01  5.502569188E+01  4.750000000E+00  0.00000E+00  9.000E+00
       1     1     1     2   511     0  2.255532205E+01 -6.382102427E+00 -5.222099487E+01  5.724077297E+01  1.348699152E-06  0.00000E+00  9.000E+00
</event>
<event>
     13  10001  1.00000E+00  9.13166E+01 -1.00000E+00  1.28089E-01
      21    -1     0     0   503   504  0.000000000E+00  0.000000000E+00  2.341930318E+02  2.341930318E+02  0.000000000E+00  0.00000E+00  9.000E+00
      21    -1     0     0   512   503  0.000000000E+00  0.000000000E+00 -2.864159376E+02  2.864159376E+02  0.000000000E+00  0.00000E+00  9.000E+00
       6     2     1     2   502     0 -4.117453084E+01  9.440453452E+01  7.665145275E+01  2.146322514E+02  1.720000000E+02  0.00000E+00  9.000E+00
      -6     2     1     2     0   504 -3.680252549E+01 -4.688301595E+01 -1.101310096E+02  2.127563920E+02  1.720000000E+02  0.00000E+00  9.000E+00
      24     2     3     3     0     0  1.468888597E+01  5.498760248E+00  7.180750519E+01  1.094135061E+02  8.104935395E+01  0.00000E+00  9.000E+00
     -24     2     4     4     0     0 -2.982776154E+01 -2.829064570E+01  1.089278659E+01  9.002234905E+01  7.934301819E+01  0.00000E+00  9.000E+00
     -11     1     5     5     0     0  1.109845918E+01 -3.761073913E+01  3.655383663E+01  5.360901479E+01  1.261592536E-06  0.00000E+00  9.000E+00
      12     1     5     5     0     0  3.590426783E+00  4.310949938E+01  3.525366856E+01  5.580449129E+01  1.430511475E-06  0.00000E+00  9.000E+00
      13     1     6     6     0     0 -4.422486253E+00 -4.065630370E+01 -2.217994442E+01  4.652357842E+01  1.168007728E-06  0.00000E+00  9.000E+00
     -14     1     6     6     0     0 -2.540527529E+01  1.236565799E+01  3.307273100E+01  4.349877062E+01  6.743495762E-07  0.00000E+00  9.000E+00
       5     1     3     3   502     0 -5.586341681E+01  8.890577428E+01  4.843947555E+00  1.052187453E+02  4.750000000E+00  0.00000E+00  9.000E+00
      -5     1     4     4     0   504 -6.974763949E+00 -1.859237025E+01 -1.210237962E+02  1.227340429E+02  4.750000000E+00  0.00000E+00  9.000E+00
      21     1     1     2   512   502  7.797705633E+01 -4.752151857E+01 -1.874334898E+01  9.322032596E+01  1.831327855E-06  0.00000E+00  9.000E+00
</event>
<event>
     13  10001  1.00000E+00  1.16893E+02 -1.00000E+00  1.23125E-01
      21    -1     0     0   503   504  0.000000000E+00  0.000000000E+00  1.973694958E+03  1.973694958E+03  0.000000000E+00  0.00000E+00  9.000E+00
      21    -1     0     0   502   511  0.000000000E+00  0.000000000E+00 -1.281427676E+03  1.281427676E+03  0.000000000E+00  0.00000E+00  9.000E+00
       6     2     1     2   502     0  3.918147458E+01 -3.158732795E+01  9.689982276E+02  9.854311302E+02  1.720000000E+02  0.00000E+00  9.000E+00
      -6     2     1     2     0   504  7.709852333E+01  4.353940665E+01  9.843627851E+02  1.003191883E+03  1.720000000E+02  0.00000E+00  9.000E+00
      24     2     3     3     0     0  6.438679224E+01 -7.520041627E+01  6.418244943E+02  6.543682604E+02  8.036402842E+01  0.00000E+00  9.000E+00
     -24     2     4     4     0     0  6.944804506E+00 -1.425232392E+00  7.016900653E+02  7.084550651E+02  9.741339724E+01  0.00000E+00  9.000E+00
     -11     1     5     5     0     0 -1.403367273E+01 -2.772648300E+01  2.520696934E+02  2.539780151E+02  3.814697266E-06  0.00000E+00  9.000E+00
      12     1     5     5     0     0  7.842046497E+01 -4.747393327E+01  3.897548009E+02  4.003902453E+02  9.344061824E-06  0.00000E+00  9.000E+00
      13     1     6     6     0     0 -3.406926490E+01  3.051823839E+00  5.555706994E+02  5.566227003E+02  0.000000000E+00  0.00000E+00  9.000E+00
     -14     1     6     6     0     0  4.101406940E+01 -4.477056230E+00  1.461193659E+02  1.518323648E+02  2.697398305E-06  0.00000E+00  9.000E+00
       5     1     3     3   502     0 -2.520531766E+01  4.361308832E+01  3.271737333E+02  3.310628698E+02  4.750000000E+00  0.00000E+00  9.000E+00
      -5     1     4     4     0   504  7.015371882E+01  4.496463904E+01  2.826727198E+02  2.947368182E+02  4.750000000E+00  0.00000E+00  9.000E+00
      21     1     1     2   503   511 -1.162799979E+02 -1.195207870E+01 -1.261093731E+03  1.266499620E+03  1.525878906E-05  0.00000E+00  9.000E+00
</event>
<event>
     13  10001  1.00000E+00  3.59941E+01 -1.00000E+00  1.51185E-01
      -2    -1     0     0     0   512  0.000000000E+00  0.000000000E+00  4.272428404E+02  4.272428404E+02  0.000000000E+00  0.00000E+00  9.000E+00
       2    -1     0     0   513     0  0.000000000E+00  0.000000000E+00 -2.720961482E+02  2.720961482E+02  0.000000000E+00  0.00000E+00  9.000E+00
       6     2     1     2   502     0 -6.265428509E+01  8.541049098E+01 -2.579835278E+01  2.036420055E+02  1.720000000E+02  0.00000E+00  9.000E+00
      -6     2     1     2     0   512  3.079389333E+01 -6.866266060E+01  3.096142271E+02  3.620881031E+02  1.720000000E+02  0.00000E+00  9.000E+00
      24     2     3     3     0     0  3.129814879E+01  5.105912743E+01 -2.798168445E+01  1.034701260E+02  7.960203326E+01  0.00000E+00  9.000E+00
     -24     2     4     4     0     0 -4.669135822E+01 -2.414975526E+01  1.362776673E+02  1.670150697E+02  8.098850083E+01  0.00000E+00  9.000E+00
     -11     1     5     5     0     0 -2.429441930E+01  1.867033447E+00 -1.344082434E+01  2.782733157E+01  6.529361695E-07  0.00000E+00  9.000E+00
      12     1     5     5     0     0  5.559256810E+01  4.919209398E+01 -1.454086012E+01  7.564279444E+01  1.599360450E-06  0.00000E+00  9.000E+00
      13     1     6     6     0     0 -1.949691149E+01  2.914959054E+01  6.580628254E+01  7.456738569E+01  0.000000000E+00  0.00000E+00  9.000E+00
     -14     1     6     6     0     0 -2.719444672E+01 -5.329934581E+01  7.047138479E+01  9.244768396E+01  0.000000000E+00  0.00000E+00  9.000E+00
       5     1     3     3   502     0 -9.395243388E+01  3.435136356E+01  2.183331674E+00  1.001718795E+02  4.750000000E+00  0.00000E+00  9.000E+00
      -5     1     4     4     0   512  7.748525155E+01 -4.451290534E+01  1.733365597E+02  1.950730335E+02  4.750000000E+00  0.00000E+00  9.000E+00
      21     1     1     2   513   502  3.186039175E+01 -1.674783039E+01 -1.286691820E+02  1.336088799E+02  0.000000000E+00  0.00000E+00  9.000E+00
</event>
<event>
     13  10001  1.00000E+00  7.39461E+00 -1.00000E+00  2.19626E-01
      21    -1     0     0   503   511  0.000000000E+00  0.000000000E+00  3.742529099E+01  3.742529099E+01  0.000000000E+00  0.00000E+00  9.000E+00
      21    -1     0     0   502   503  0.000000000E+00  0.000000000E+00 -1.026775007E+03  1.026775007E+03  0.000000000E+00  0.00000E+00  9.000E+00
       6     2     1     2   502     0  2.838239344E+00  4.694983330E+01 -3.399812117E+02  3.839056743E+02  1.720000000E+02  0.00000E+00  9.000E+00
      -6     2     1     2     0   504  3.564004881E+00 -5.065004424E+01 -6.485102053E+02  6.728503663E+02  1.720000000E+02  0.00000E+00  9.000E+00
      24     2     3     3     0     0  2.607611510E+01  3.381374982E+01 -3.445493385E+02  3.564104776E+02  8.056580179E+01  0.00000E+00  9.000E+00
     -24     2     4     4     0     0 -4.110515652E+01 -5.122617158E+00 -1.892725735E+02  2.091803915E+02  7.884449261E+01  0.00000E+00  9.000E+00
     -11     1     5     5     0     0  3.435459223E+00  3.623149919E+01 -3.230542933E+02  3.250978319E+02  0.000000000E+00  0.00000E+00  9.000E+00
      12     1     5     5     0     0  2.264065588E+01 -2.417749364E+00 -2.149504527E+01  3.131264571E+01  1.011524364E-06  0.00000E+00  9.000E+00
      13     1     6     6     0     0 -1.115069159E+01 -2.273115464E+01 -1.646711467E+02  1.666062120E+02  0.000000000E+00  0.00000E+00  9.000E+00
     -14     1     6     6     0     0 -2.995446493E+01  1.760853748E+01 -2.460142676E+01  4.257417950E+01  1.215700987E-06  0.00000E+00  9.000E+00
       5     1     3     3   502     0 -2.323787576E+01  1.313608347E+01  4.568126812E+00  2.749519670E+01  4.750000000E+00  0.00000E+00  9.000E+00
      -5     1     4     4     0   504  4.466916140E+01 -4.552742708E+01 -4.592376318E+02  4.636699749E+02  4.750000000E+00  0.00000E+00  9.000E+00
      21     1     1     2   504   511 -6.402244225E+00  3.700210942E+00 -8.582991597E-01  7.444257490E+00  2.771776205E-07  0.00000E+00  9.000E+00
</event>
<event>
     13  10001  1.00000E+00  7.01906E+00 -1.00000E+00  2.23006E-01
      21    -1     0     0   502   512  0.000000000E+00  0.000000000E+00  1.009965766E+03  1.009965766E+03  0.000000000E+00  0.00000E+00  9.000E+00
      21    -1     0     0   503   504  0.000000000E+00  0.000000000E+00 -1.733378506E+02  1.733378506E+02  0.000000000E+00  0.00000E+00  9.000E+00
       6     2     1     2   502     0 -2.114389391E+02  2.488962222E+02  1.519056429E+02  3.991429302E+02  1.720000000E+02  0.00000E+00  9.000E+00
      -6     2     1     2     0   504  2.152390342E+02 -2.429948273E+02  6.323266797E+02  7.312970380E+02  1.720000000E+02  0.00000E+00  9.000E+00
      24     2     3     3     0     0 -1.618536527E+02  1.088771063E+02  4.457968327E+01  2.158249618E+02  8.088409481E+01  0.00000E+00  9.000E+00
     -24     2     4     4     0     0  1.200012095E+02 -2.206206757E+02  3.985809684E+02  4.778597362E+02  8.005851766E+01  0.00000E+00  9.000E+00
     -11     1     5     5     0     0 -5.131639859E+01  7.628616761E+01 -8.716280890E-01  9.194406924E+01  1.698568978E-06  0.00000E+00  9.000E+00
      12     1     5     5     0     0 -1.105372541E+02  3.259093871E+01  4.545131136E+01  1.238808925E+02  3.814697266E-06  0.00000E+00  9.000E+00
      13     1     6     6     0     0  7.627749826E+00 -4.231466588E+01  1.270626426E+02  1.341403320E+02  2.336015456E-06  0.00000E+00  9.000E+00
     -14     1     6     6     0     0  1.123734596E+02 -1.783060098E+02  2.715183258E+02  3.437194042E+02  0.000000000E+00  0.00000E+00  9.000E+00
       5     1     3     3   502     0 -4.958528640E+01  1.400191159E+02  1.073259596E+02  1.833179685E+02  4.750000000E+00  0.00000E+00  9.000E+00
      -5     1     4     4     0   504  9.523782472E+01 -2.237415158E+01  2.337457112E+02  2.534373018E+02  4.750000000E+00  0.00000E+00  9.000E+00
      21     1     1     2   503   512 -3.800095109E+00 -5.901394956E+00  5.239559227E+01  5.286364795E+01  0.000000000E+00  0.00000E+00  9.000E+00
</event>
<event>
     13  10001  1.00000E+00  1.42006E+02 -1.00000E+00  1.19481E-01
       1    -1     0     0   511     0  0.000000000E+00  0.000000000E+00  2.112288073E+02  2.112288073E+02  0.000000000E+00  0.00000E+00  9.000E+00
      -1    -1     0     0     0   512  0.000000000E+00  0.000000000E+00 -3.913608734E+02  3.913608734E+02  0.000000000E+00  0.00000E+00  9.000E+00
       6     2     1     2   502     0  1.059038632E+01  6.327951087E+01 -6.840590779E+01  1.959076849E+02  1.720000000E+02  0.00000E+00  9.000E+00
      -6     2     1     2     0   512  1.210185309E+02 -9.943278580E+00 -1.512962278E+02  2.592660837E+02  1.720000000E+02  0.00000E+00  9.000E+00
      24     2     3     3     0     0 -2.627449550E+01  4.186431101E+01 -1.060635427E+02  1.388262495E+02  7.470129051E+01  0.00000E+00  9.000E+00
     -24     2     4     4     0     0  1.078003818E+02 -6.608236514E+01 -8.933540064E+01  1.744838738E+02  8.047364238E+01  0.00000E+00  9.000E+00
     -11     1     5     5     0     0 -3.051809660E+01 -8.314452986E+00 -7.021845044E+01  7.701373339E+01  9.536743164E-07  0.00000E+00  9.000E+00
      12     1     5     5     0     0  4.243601103E+00  5.017876399E+01 -3.584509229E+01  6.181251611E+01  1.261592536E-06  0.00000E+00  9.000E+00
      13     1     6     6     0     0  6.472916266E+01 -2.197309380E+01 -8.976855715E+01  1.128320664E+02  2.523185073E-06  0.00000E+00  9.000E+00
     -14     1     6     6     0     0  4.307121915E+01 -4.410927134E+01  4.331565166E-01  6.165180745E+01  1.113818191E-06  0.00000E+00  9.000E+00
       5     1     3     3   502     0  3.686488182E+01  2.141519987E+01  3.765763494E+01  5.708143539E+01  4.750000000E+00  0.00000E+00  9.000E+00
      -5     1     4     4     0   512  1.321814905E+01  5.613908656E+01 -6.196082720E+01  8.478220987E+01  4.750000000E+00  0.00000E+00  9.000E+00
      21     1     1     2   511   502 -1.316089172E+02 -5.333623229E+01  3.957006954E+01  1.474159122E+02  2.523185073E-06  0.00000E+00  9.000E+00
</event>
<event>
     13  10001  1.00000E+00  1.81525E+01 -1.00000E+00  1.74532E-01
       1    -1     0     0   503     0  0.000000000E+00  0.000000000E+00  1.077810682E+03  1.077810682E+03  0.000000000E+00  0.00000E+00  9.000E+00
      21    -1     0     0   502   503  0.000000000E+00  0.000000000E+00 -1.157982976E+02  1.157982976E+02  0.000000000E+00  0.00000E+00  9.000E+00
       6     2     1     2   502     0 -2.434288722E+01  1.182109222E+01  1.305930646E+02  2.176484847E+02  1.720000000E+02  0.00000E+00  9.000E+00
      -6     2     1     2     0   504  4.247665891E+01 -1.264533233E+01  3.712205025E+01  1.814558282E+02  1.720000000E+02  0.00000E+00  9.000E+00
      24     2     3     3     0     0  4.653738028E+01  4.140734209E+01  8.514957934E+01  1.282782920E+02  7.296967578E+01  0.00000E+00  9.000E+00
     -24     2     4     4     0     0 -2.108916270E+00  2.280448053E+01  7.509552229E+01  1.128328742E+02  8.103967030E+01  0.00000E+00  9.000E+00
     -11     1     5     5     0     0  4.368893894E+00 -2.037820194E+01  1.453465184E+01  2.540894434E+01  6.743495762E-07  0.00000E+00  9.000E+00
      12     1     5     5     0     0  4.216848639E+01  6.178554403E+01  7.061492749E+01  1.028693476E+02  1.907348633E-06  0.00000E+00  9.000E+00
      13     1     6     6     0     0 -3.990095990E+00 -2.265050888E+01 -2.240338399E+00  2.310812702E+01  6.802506572E-07  0.00000E+00  9.000E+00
     -14     1     6     6     0     0  1.881179721E+00  4.545498941E+01  7.733586069E+01  8.972474713E+01  9.536743164E-07  0.00000E+00  9.000E+00
       5     1     3     3   502     0 -7.088026750E+01 -2.958624987E+01  4.544348530E+01  8.937019278E+01  4.750000000E+00  0.00000E+00  9.000E+00
      -5     1     4     4     0   504  4.458557518E+01 -3.544981286E+01 -3.797347204E+01  6.862295407E+01  4.750000000E+00  0.00000E+00  9.000E+00
       1     1     1     2   504     0 -1.813377169E+01  8.242401112E-01  7.942972694E+02  7.945046666E+02  0.000000000E+00  0.00000E+00  9.000E+00
</event>
<event>
     13  10001  1.00000E+00  8.64360E+01 -1.00000E+00  1.29250E-01
      21    -1     0     0   511   512  0.000000000E+00  0.000000000E+00  6.569916260E+01  6.569916260E+01  0.000000000E+00  0.00000E+00  9.000E+00
       2    -1     0     0   502     0  0.000000000E+00  0.000000000E+00 -1.157870296E+03  1.157870296E+03  0.000000000E+00  0.00000E+00  9.000E+00
       6     2     1     2   502     0  1.317760435E+01  1.349294331E+02 -5.902170964E+02  6.295393729E+02  1.720000000E+02  0.00000E+00  9.000E+00
      -6     2     1     2     0   512 -7.730858586E+01 -7.697776542E+01 -4.480228241E+02  4.921490066E+02  1.720000000E+02  0.00000E+00  9.000E+00
      24     2     3     3     0     0 -4.185303524E+01  5.089397046E+01 -4.110730173E+02  4.240996157E+02  8.085533802E+01  0.00000E+00  9.000E+00
     -24     2     4     4     0     0 -4.409730623E+01 -9.453835927E+01 -1.846965138E+02  2.261139117E+02  7.831107876E+01  0.00000E+00  9.000E+00
     -11     1     5     5     0     0 -4.355444468E+01 -7.940660701E+00 -2.085167637E+02  2.131649232E+02  0.000000000E+00  0.00000E+00  9.000E+00
      12     1     5     5     0     0  1.701409437E+00  5.883463116E+01 -2.025562536E+02  2.109346925E+02  3.814697266E-06  0.00000E+00  9.000E+00
      13     1     6     6     0     0  1.701608666E+01 -9.464677764E+00 -8.750118211E+00  2.134694121E+01  1.685873940E-07  0.00000E+00  9.000E+00
     -14     1     6     6     0     0 -6.111339289E+01 -8.507368150E+01 -1.759463956E+02  2.047669705E+02  3.303624740E-06  0.00000E+00  9.000E+00
       5     1     3     3   502     0  5.503063959E+01  8.403546264E+01 -1.791440791E+02  2.054397572E+02  4.750000000E+00  0.00000E+00  9.000E+00
      -5     1     4     4     0   512 -3.321127964E+01  1.756059384E+01 -2.633263103E+02  2.660350949E+02  4.750000000E+00  0.00000E+00  9.000E+00
       2     1     1     2   511     0  6.413098151E+01 -5.795166767E+01 -5.393121325E+01  1.018810794E+02  1.348699152E-06  0.00000E+00  9.000E+00
</event>
<event>
     13  10001  1.00000E+00  5.22798E+01 -1.00000E+00  1.40968E-01
      21    -1     0     0   513   512  0.000000000E+00  0.000000000E+00  1.134396487E+02  1.134396487E+02  0.000000000E+00  0.00000E+00  9.000E+00
       2    -1     0     0   502     0  0.000000000E+00  0.000000000E+00 -1.612044415E+03  1.612044415E+03  0.000000000E+00  0.00000E+00  9.000E+00
       6     2     1     2   502     0 -5.344205341E+01  6.463248332E+01 -9.782240247E+02  9.967645928E+02  1.720000000E+02  0.00000E+00  9.000E+00
      -6     2     1     2     0   512  1.635849013E+01 -2.778161572E+01 -6.046977287E+02  6.295099375E+02  1.720000000E+02  0.00000E+00  9.000E+00
      24     2     3     3     0     0  3.455087510E+01  3.108782483E+01 -5.762246168E+02  5.838552977E+02  8.180454606E+01  0.00000E+00  9.000E+00
     -24     2     4     4     0     0  3.629089932E+01  4.318952806E+01 -3.949739205E+02  4.071569694E+02  8.117903181E+01  0.00000E+00  9.000E+00
     -11     1     5     5     0     0  3.204894140E+00 -2.129464747E+01 -5.495801564E+01  5.902640799E+01  3.438521648E-06  0.00000E+00  9.000E+00
      12     1     5     5     0     0  3.134598095E+01  5.238247230E+01 -5.212666012E+02  5.248288897E+02  1.078959322E-05  0.00000E+00  9.000E+00
      13     1     6     6     0     0  8.429742464E+00  2.338518639E+01 -3.489155895E+02  3.497999659E+02  3.814697266E-06  0.00000E+00  9.000E+00
     -14     1     6     6     0     0  2.786115685E+01  1.980434166E+01 -4.605833091E+01  5.735700355E+01  1.651812370E-06  0.00000E+00  9.000E+00
       5     1     3     3   502     0 -8.799292851E+01  3.354465849E+01 -4.019994079E+02  4.129092951E+02  4.750000000E+00  0.00000E+00  9.000E+00
      -5     1     4     4     0   512 -1.993240919E+01 -7.097114378E+01 -2.097238082E+02  2.223529681E+02  4.750000000E+00  0.00000E+00  9.000E+00
       2     1     1     2   513     0  3.708356329E+01 -3.685086760E+01  8.431698736E+01  9.920953314E+01  1.348699152E-06  0.00000E+00  9.000E+00
</event>
<event>
     13  10001  1.00000E+00  4.30865E+01 -1.00000E+00  1.46078E-01
      21    -1     0     0   502   503  0.000000000E+00  0.000000000E+00  6.738487991E+02  6.738487991E+02  0.000000000E+00  0.00000E+00  9.000E+00
      21    -1     0     0   503   511  0.000000000E+00  0.000000000E+00 -6.854274900E+01  6.854274900E+01  0.000000000E+00  0.00000E+00  9.000E+00
       6     2     1     2   502     0 -3.407568902E+00  8.812435462E+01  3.374531045E+02  3.888908731E+02  1.720000000E+02  0.00000E+00  9.000E+00
      -6     2     1     2     0   504 -3.382263211E+01 -6.643660035E+01  2.128676184E+02  2.836448753E+02  1.720000000E+02  0.00000E+00  9.000E+00
      24     2     3     3     0     0 -4.647654725E+01  8.694449404E+01  3.152279655E+02  3.401789826E+02  8.144725595E+01  0.00000E+00  9.000E+00
     -24     2     4     4     0     0 -7.973879210E+01 -5.414410187E+01  9.810352846E+01  1.593357521E+02  8.045943617E+01  0.00000E+00  9.000E+00
     -11     1     5     5     0     0  2.353881374E+01  2.013313179E+01  8.308913403E+01  8.867481571E+01  1.907348633E-06  0.00000E+00  9.000E+00
      12     1     5     5     0     0 -7.001536098E+01  6.681136225E+01  2.321388315E+02  2.515041669E+02  4.672030912E-06  0.00000E+00  9.000E+00
      13     1     6     6     0     0 -1.084100125E+01 -3.422240738E+01  7.638375539E+01  8.439892512E+01  9.536743164E-07  0.00000E+00  9.000E+00
     -14     1     6     6     0     0 -6.889779085E+01 -1.992169449E+01  2.171977308E+01  7.493682698E+01  5.331201500E-07  0.00000E+00  9.000E+00
       5     1     3     3   502     0  4.306897834E+01  1.179860581E+00  2.222513904E+01  4.871189046E+01  4.750000000E+00  0.00000E+00  9.000E+00
      -5     1     4     4     0   504  4.591615998E+01 -1.229249848E+01  1.147640899E+02  1.243091232E+02  4.750000000E+00  0.00000E+00  9.000E+00
      21     1     1     2   504   511  3.723020101E+01 -2.168775427E+01  5.498532713E+01  6.985579971E+01  9.536743164E-07  0.00000E+00  9.000E+00
</event>
<event>
     13  10001  1.00000E+00  1.74424E+02 -1.00000E+00  1.15863E-01
      21    -1     0     0   503   512  0.000000000E+00  0.000000000E+00  1.113808200E+02  1.113808200E+02  0.000000000E+00  0.00000E+00  9.000E+00
      21    -1     0     0   502   503  0.000000000E+00  0.000000000E+00 -1.153005192E+03  1.153005192E+03  0.000000000E+00  0.00000E+00  9.000E+00
       6     2     1     2   502     0  4.333474475E+01 -2.003757889E+01 -7.459141644E+02  7.669754528E+02  1.720000000E+02  0.00000E+00  9.000E+00
      -6     2     1     2     0   504  5.365722246E+01 -1.249319240E+02 -2.078267380E+02  3.020977262E+02  1.720000000E+02  0.00000E+00  9.000E+00
      24     2     3     3     0     0  1.734251254E+01 -7.076431093E+01 -3.070601687E+02  3.244099894E+02  7.515013999E+01  0.00000E+00  9.000E+00
     -24     2     4     4     0     0  6.799427655E+01 -8.911756885E+01 -6.231402481E+01  1.514832138E+02  8.061615008E+01  0.00000E+00  9.000E+00
     -11     1     5     5     0     0  3.020417067E+00  8.683476201E+00 -2.782930854E+00  9.605747360E+00  1.563131099E-06  0.00000E+00  9.000E+00
      12     1     5     5     0     0  1.432209547E+01 -7.944778713E+01 -3.042772379E+02  3.148042420E+02  6.607249480E-06  0.00000E+00  9.000E+00
      13     1     6     6     0     0  3.886729013E+00 -2.835381041E+00  1.714774108E+01  1.780985885E+01  1.011524364E-06  0.00000E+00  9.000E+00
     -14     1     6     6     0     0  6.410754754E+01 -8.628218781E+01 -7.946176589E+01  1.336733549E+02  2.697398305E-06  0.00000E+00  9.000E+00
       5     1     3     3   502     0  2.599223222E+01  5.072673204E+01 -4.388539956E+02  4.425654635E+02  4.750000000E+00  0.00000E+00  9.000E+00
      -5     1     4     4     0   504 -1.433705409E+01 -3.581435519E+01 -1.455127132E+02  1.506145124E+02  4.750000000E+00  0.00000E+00  9.000E+00
      21     1     1     2   504   512 -9.699196721E+01  1.449695029E+02 -8.788346976E+01  1.953128330E+02  9.536743164E-07  0.00000E+00  9.000E+00
</event>
<event>
     13  10001  1.00000E+00  1.58499E+01 -1.00000E+00  1.80076E-01
      21    -1     0     0   511   504  0.000000000E+00  0.000000000E+00  2.728527714E+02  2.728527714E+02  0.000000000E+00  0.00000E+00  9.000E+00
      21    -1     0     0   502   503  0.000000000E+00  0.000000000E+00 -1.763487757E+02  1.763487757E+02  0.000000000E+00  0.00000E+00  9.000E+00
       6     2     1     2   502     0  8.971565376E+00  9.786450837E+01  1.147851161E+02  2.289488455E+02  1.720000000E+02  0.00000E+00  9.000E+00
      -6     2     1     2     0   504 -2.467971487E+01 -9.574941590E+01 -2.985085149E+01  2.006292907E+02  1.720000000E+02  0.00000E+00  9.000E+00
      24     2     3     3     0     0 -7.980359147E+00  1.338965688E+02  7.952420672E+01  1.755487392E+02  8.063053471E+01  0.00000E+00  9.000E+00
     -24     2     4     4     0     0  1.246472732E+01 -1.242122639E+02 -4.395180724E+01  1.515248841E+02  7.378328537E+01  0.00000E+00  9.000E+00
     -11     1     5     5     0     0 -4.765911505E+00  6.278083678E+01 -7.173819178E+00  6.336884929E+01  6.019774043E-07  0.00000E+00  9.000E+00
      12     1     5     5     0     0 -3.214447642E+00  7.111573200E+01  8.669802590E+01  1.121798899E+02  1.348699152E-06  0.00000E+00  9.000E+00
      13     1     6     6     0     0 -2.366175027E+01 -1.997983674E+01 -2.454302614E+01  3.951496469E+01  0.000000000E+00  0.00000E+00  9.000E+00
     -14     1     6     6     0     0  3.612647760E+01 -1.042324272E+02 -1.940878110E+01  1.120099194E+02  9.233911863E-07  0.00000E+00  9.000E+00
       5     1     3     3   502     0  1.695192452E+01 -3.603206040E+01  3.526090933E+01  5.340010626E+01  4.750000000E+00  0.00000E+00  9.000E+00
      -5     1     4     4     0   504 -3.714444220E+01  2.846284800E+01  1.410095575E+01  4.910440668E+01  4.750000000E+00  0.00000E+00  9.000E+00
      21     1     1     2   511   503  1.570814950E+01 -2.115092462E+00  1.156973112E+01  1.962341089E+01  0.000000000E+00  0.00000E+00  9.000E+00
</event>
<event>
     13  10001  1.00000E+00  1.17863E+01 -1.00000E+00  1.93551E-01
       2    -1     0     0   502     0  0.000000000E+00  0.000000000E+00  1.652653636E+03  1.652653636E+03  0.000000000E+00  0.00000E+00  9.000E+00
      21    -1     0     0   513   512  0.000000000E+00  0.000000000E+00 -6.034020902E+01  6.034020902E+01  0.000000000E+00  0.00000E+00  9.000E+00
       6     2     1     2   502     0  1.896150194E+02 -1.545251388E+02  1.015100693E+03  1.058227429E+03  1.720000000E+02  0.00000E+00  9.000E+00
      -6     2     1     2     0   512 -1.926206565E+02  1.431285238E+02  5.665750232E+02  6.388894651E+02  1.720000000E+02  0.00000E+00  9.000E+00
      24     2     3     3     0     0  1.730016624E+02 -1.795065547E+02  9.619399392E+02  9.970007760E+02  8.080793429E+01  0.00000E+00  9.000E+00
     -24     2     4     4     0     0 -5.091676263E+01  1.145784179E+02  2.527788540E+02  2.933671063E+02  8.028934848E+01  0.00000E+00  9.000E+00
     -11     1     5     5     0     0 -2.911978832E-02 -3.857884902E+01  1.605123084E+02  1.650834019E+02  1.907348633E-06  0.00000E+00  9.000E+00
      12     1     5     5     0     0  1.730307822E+02 -1.409277057E+02  8.014276308E+02  8.319173741E+02  1.525878906E-05  0.00000E+00  9.000E+00
      13     1     6     6     0     0  2.093048831E+01  3.936119719E+01  8.439908980E+01  9.544943973E+01  2.523185073E-06  0.00000E+00  9.000E+00
     -14     1     6     6     0     0 -7.184725094E+01  7.521722067E+01  1.683797642E+02  1.979176666E+02  6.325959759E-06  0.00000E+00  9.000E+00
       5     1     3     3   502     0  1.661335698E+01  2.498141588E+01  5.316075352E+01  6.122665256E+01  4.750000000E+00  0.00000E+00  9.000E+00
      -5     1     4     4     0   512 -1.417038938E+02  2.855010595E+01  3.137961692E+02  3.455223588E+02  4.750000000E+00  0.00000E+00  9.000E+00
       2     1     1     2   513     0  3.005637047E+00  1.139661502E+01  1.063771080E+01  1.587695119E+01  4.129530925E-07  0.00000E+00  9.000E+00
</event>
<event>
     13  10001  1.00000E+00  7.97964E+01 -1.00000E+00  1.30977E-01
      21    -1     0     0   503   504  0.000000000E+00  0.000000000E+00  2.032232058E+02  2.032232058E+02  0.000000000E+00  0.00000E+00  9.000E+00
       2    -1     0     0   502     0  0.000000000E+00  0.000000000E+00 -1.244895818E+03  1.244895818E+03  0.000000000E+00  0.00000E+00  9.000E+00
       6     2     1     2   502     0  1.007133512E+01  1.243771591E+02 -5.448903455E+02  5.848594687E+02  1.720000000E+02  0.00000E+00  9.000E+00
      -6     2     1     2     0   504 -8.794200874E+01 -1.418018486E+02  1.010897465E+02  2.600859435E+02  1.720000000E+02  0.00000E+00  9.000E+00
      24     2     3     3     0     0  1.896797409E+01  8.826453229E+01 -1.711727474E+02  2.092657019E+02  7.963424419E+01  0.00000E+00  9.000E+00
     -24     2     4     4     0     0 -9.705794555E+01 -5.004142375E+01  9.868940312E+01  1.677203654E+02  8.041227390E+01  0.00000E+00  9.000E+00
     -11     1     5     5     0     0  1.659524439E+00  7.782602736E+01 -6.566924415E+01  1.018434788E+02  2.132480600E-06  0.00000E+00  9.000E+00
      12     1     5     5     0     0  1.730844965E+01  1.043850494E+01 -1.055035032E+02  1.074222231E+02  1.348699152E-06  0.00000E+00  9.000E+00
      13     1     6     6     0     0 -2.820454149E+01 -4.163004983E+01  8.229851594E+01  9.644481809E+01  9.536743164E-07  0.00000E+00  9.000E+00
     -14     1     6     6     0     0 -6.885340406E+01 -8.411373920E+00  1.639088718E+01  7.127554731E+01  7.907449699E-07  0.00000E+00  9.000E+00
       5     1     3     3   502     0 -8.896638965E+00  3.611262679E+01 -3.737175981E+02  3.755937668E+02  4.750000000E+00  0.00000E+00  9.000E+00
      -5     1     4     4     0   504  9.115936810E+00 -9.176042484E+01  2.400343353E+00  9.236557811E+01  4.750000000E+00  0.00000E+00  9.000E+00
       2     1     1     2   503     0  7.787067362E+01  1.742468951E+01 -5.978720134E+02  6.031736119E+02  0.000000000E+00  0.00000E+00  9.000E+00
</event>
<event>
     13  10001  1.00000E+00  2.76145E+02 -1.00000E+00  1.08534E-01
      21    -1     0     0   511   512  0.000000000E+00  0.000000000E+00  3.607332698E+02  3.607332698E+02  0.000000000E+00  0.00000E+00  9.000E+00
       2    -1     0     0   502     0  0.000000000E+00  0.000000000E+00 -4.743166333E+02  4.743166333E+02  0.000000000E+00  0.00000E+00  9.000E+00
       6     2     1     2   502     0  9.409076180E+01 -9.952887201E+01 -2.180470702E+02  3.096572180E+02  1.720000000E+02  0.00000E+00  9.000E+00
      -6     2     1     2     0   512  1.498618961E+02 -2.986580091E+01 -2.097660216E-01  2.300752007E+02  1.720000000E+02  0.00000E+00  9.000E+00
      24     2     3     3     0     0  1.140228510E+02 -1.065519183E+02 -1.275999321E+02  2.166526017E+02  7.938567438E+01  0.00000E+00  9.000E+00
     -24     2     4     4     0     0  1.263063664E+01 -3.722706714E+01 -2.046390779E+01  9.108095773E+01  7.957123745E+01  0.00000E+00  9.000E+00
     -11     1     5     5     0     0  1.717023198E+01  1.336408101E+00  7.216816313E+00  1.867311678E+01  6.307962682E-07  0.00000E+00  9.000E+00
      12     1     5     5     0     0  9.685261902E+01 -1.078883264E+02 -1.348167484E+02  1.979794849E+02  2.697398305E-06  0.00000E+00  9.000E+00
      13     1     6     6     0     0  1.572769050E+01  3.061623688E+00 -4.224166079E+01  4.517844280E+01  9.536743164E-07  0.00000E+00  9.000E+00
     -14     1     6     6     0     0 -3.097053856E+00 -4.028869083E+01  2.177775300E+01  4.590251493E+01  1.617033478E-06  0.00000E+00  9.000E+00
       5     1     3     3   502     0 -1.993208920E+01  7.023046292E+00 -9.044713816E+01  9.300461634E+01  4.750000000E+00  0.00000E+00  9.000E+00
      -5     1     4     4     0   512  1.372312595E+02  7.361266231E+00  2.025414177E+01  1.389942430E+02  4.750000000E+00  0.00000E+00  9.000E+00
       2     1     1     2   511     0 -2.439526579E+02  1.293946729E+02  1.046734728E+02  2.953174844E+02  7.387129490E-06  0.00000E+00  9.000E+00
</event>
<event>
     13  10001  1.00000E+00  1.08909E+01 -1.00000E+00  1.97508E-01
       2    -1     0     0   502     0  0.000000000E+00  0.000000000E+00  1.550912687E+03  1.550912687E+03  0.000000000E+00  0.00000E+00  9.000E+00
      21    -1     0     0   503   504  0.000000000E+00  0.000000000E+00 -5.017072146E+01  5.017072146E+01  0.000000000E+00  0.00000E+00  9.000E+00
       6     2     1     2   502     0 -1.453189683E+02  1.410191865E+01  6.005481803E+02  6.415283186E+02  1.720000000E+02  0.00000E+00  9.000E+00
      -6     2     1     2     0   504  1.382761599E+02 -2.240913088E+01  3.856490240E+02  4.448950834E+02  1.720000000E+02  0.00000E+00  9.000E+00
      24     2     3     3     0     0 -1.026585374E+02  3.178212134E+01  5.709339055E+02  5.864640860E+02  8.016059628E+01  0.00000E+00  9.000E+00
     -24     2     4     4     0     0  4.222158884E+01  2.152149227E+01  2.802060306E+02  2.955727220E+02  8.125255190E+01  0.00000E+00  9.000E+00
     -11     1     5     5     0     0 -3.624088444E+01 -8.790147970E+00  3.546074358E+02  3.565629003E+02  6.607249480E-06  0.00000E+00  9.000E+00
      12     1     5     5     0     0 -6.641765294E+01  4.057226931E+01  2.163264697E+02  2.299011856E+02  3.814697266E-06  0.00000E+00  9.000E+00
      13     1     6     6     0     0  1.401281682E+00 -2.779690393E+01  1.168666333E+02  1.201350966E+02  1.907348633E-06  0.00000E+00  9.000E+00
     -14     1     6     6     0     0  4.082030715E+01  4.931839620E+01  1.633393974E+02  1.754376254E+02  1.907348633E-06  0.00000E+00  9.000E+00
       5     1     3     3   502     0 -4.266043096E+01 -1.768020269E+01  2.961427482E+01  5.506423259E+01  4.750000000E+00  0.00000E+00  9.000E+00
      -5     1     4     4     0   504  9.605457107E+01 -4.393062315E+01  1.054429934E+02  1.493223614E+02  4.750000000E+00  0.00000E+00  9.000E+00
       2     1     1     2   503     0  7.042808434E+00  8.307212228E+00  5.145447614E+02  5.146600066E+02  7.629394531E-06  0.00000E+00  9.000E+00
</event>
<event>
     13  10001  1.00000E+00  3.32785E+01 -1.00000E+00  1.53529E-01
      21    -1     0     0   503   511  0.000000000E+00  0.000000000E+00  1.765264078E+02  1.765264078E+02  0.000000000E+00  0.00000E+00  9.000E+00
      21    -1     0     0   502   503  0.000000000E+00  0.000000000E+00 -4.505331578E+02  4.505331578E+02  0.000000000E+00  0.00000E+00  9.000E+00
       6     2     1     2   502     0 -1.513660595E+02  1.385455162E+02 -1.984569201E+02  3.332802022E+02  1.720000000E+02  0.00000E+00  9.000E+00
      -6     2     1     2     0   504  1.180876055E+02 -1.385740798E+02 -6.981115140E+01  2.600097210E+02  1.720000000E+02  0.00000E+00  9.000E+00
      24     2     3     3     0     0 -9.610235800E+01  1.403518090E+01 -1.271924210E+02  1.794683313E+02  8.123004654E+01  0.00000E+00  9.000E+00
     -24     2     4     4     0     0 -3.535860070E+00 -3.799583908E+01 -5.108578821E+00  8.937198989E+01  8.065400738E+01  0.00000E+00  9.000E+00
     -11     1     5     5     0     0 -2.448416536E+01  2.239672236E+00  8.141154458E+00  2.589920618E+01  1.046057270E-06  0.00000E+00  9.000E+00
      12     1     5     5     0     0 -7.161819264E+01  1.179550867E+01 -1.353335754E+02  1.535691251E+02  0.000000000E+00  0.00000E+00  9.000E+00
      13     1     6     6     0     0  2.949156391E+01 -4.613731557E+01  1.224515436E+00  5.477137636E+01  1.514503473E-06  0.00000E+00  9.000E+00
     -14     1     6     6     0     0 -3.302742398E+01  8.141476490E+00 -6.333094258E+00  3.460061354E+01  4.693274423E-07  0.00000E+00  9.000E+00
       5     1     3     3   502     0 -5.526370150E+01  1.245103353E+02 -7.126449915E+01  1.538118709E+02  4.750000000E+00  0.00000E+00  9.000E+00
      -5     1     4     4     0   504  1.216234656E+02 -1.005782408E+02 -6.470257258E+01  1.706377312E+02  4.750000000E+00  0.00000E+00  9.000E+00
      21     1     1     2   504   511  3.327845400E+01  2.856366835E-02 -5.738678422E+00  3.376964238E+01  3.576278687E-07  0.00000E+00  9.000E+00
</event>
<event>
     13  10001  1.00000E+00  1.09430E+02 -1.00000E+00  1.24412E-01
      -2    -1     0     0     0   512  0.000000000E+00  0.000000000E+00  8.688817042E+01  8.688817042E+01  0.000000000E+00  0.00000E+00  9.000E+00
       2    -1     0     0   513     0  0.000000000E+00  0.000000000E+00 -1.297641267E+03  1.297641267E+03  0.000000000E+00  0.00000E+00  9.000E+00
       6     2     1     2   502     0 -4.111050768E+00  1.438222474E+02 -2.052706594E+02  3.040095117E+02  1.720000000E+02  0.00000E+00  9.000E+00
      -6     2     1     2     0   512  4.408733931E+01 -4.195601271E+01 -2.127434683E+02  2.802637754E+02  1.720000000E+02  0.00000E+00  9.000E+00
      24     2     3     3     0     0 -6.155000894E+01  7.704772687E+01 -1.624860747E+02  2.059730200E+02  7.936248924E+01  0.00000E+00  9.000E+00
     -24     2     4     4     0     0  9.371668272E+01 -1.290387396E+01 -1.364550427E+02  1.846103130E+02  8.069487216E+01  0.00000E+00  9.000E+00
     -11     1     5     5     0     0 -1.454519338E+01  7.703883674E+01 -1.147843600E+02  1.390035766E+02  2.336015456E-06  0.00000E+00  9.000E+00
      12     1     5     5     0     0 -4.700481557E+01  8.890132313E-03 -4.770171468E+01  6.696944340E+01  1.168007728E-06  0.00000E+00  9.000E+00
      13     1     6     6     0     0  2.813334606E+01 -2.605268174E+01 -7.114955359E+00  3.899807657E+01  6.078504936E-07  0.00000E+00  9.000E+00
     -14     1     6     6     0     0  6.558333666E+01  1.314880779E+01 -1.293400874E+02  1.456122364E+02  1.907348633E-06  0.00000E+00  9.000E+00
       5     1     3     3   502     0  5.743895818E+01  6.677452049E+01 -4.278458472E+01  9.803649164E+01  4.750000000E+00  0.00000E+00  9.000E+00
      -5     1     4     4     0   512 -4.962934341E+01 -2.905213875E+01 -7.628842552E+01  9.565346236E+01  4.750000000E+00  0.00000E+00  9.000E+00
      21     1     1     2   513   502 -3.997628854E+01 -1.018662347E+02 -7.927389693E+02  8.002561507E+02  1.078959322E-05  0.00000E+00  9.000E+00
</event>
<event>
     13  10001  1.00000E+00  1.50758E+01 -1.00000E+00  1.82215E-01
      21    -1     0     0   502   511  0.000000000E+00  0.000000000E+00  6.072469385E+02  6.072469385E+02  0.000000000E+00  0.00000E+00  9.000E+00
      21    -1     0     0   503   504  0.000000000E+00  0.000000000E+00 -1.565461277E+02  1.565461277E+02  0.000000000E+00  0.00000E+00  9.000E+00
       6     2     1     2   502     0 -1.606827391E+02 -4.356668374E+01  8.525772252E+01  2.541060366E+02  1.720000000E+02  0.00000E+00  9.000E+00
      -6     2     1     2     0   504  1.460395322E+02  3.998101269E+01  1.106831373E+02  2.544814005E+02  1.720000000E+02  0.00000E+00  9.000E+00
      24     2     3     3     0     0 -1.389903432E+02 -7.911271329E+01  2.290100385E+01  1.789728008E+02  7.700435402E+01  0.00000E+00  9.000E+00
     -24     2     4     4     0     0  1.446195823E+02  8.080492998E+01  1.064263922E+02  2.131378296E+02  8.158981031E+01  0.00000E+00  9.000E+00
     -11     1     5     5     0     0 -4.041463227E+01 -4.787428469E+01  3.975580525E+01  7.420117039E+01  2.023048729E-06  0.00000E+00  9.000E+00
      12     1     5     5     0     0 -9.857571093E+01 -3.123842860E+01 -1.685480140E+01  1.047716304E+02  1.118282261E-06  0.00000E+00  9.000E+00
      13     1     6     6     0     0  7.276092373E+01  5.104042855E-01  6.541158060E+01  9.784215559E+01  1.348699152E-06  0.00000E+00  9.000E+00
     -14     1     6     6     0     0  7.185865861E+01  8.029452570E+01  4.101481156E+01  1.152956740E+02  2.861022949E-06  0.00000E+00  9.000E+00
       5     1     3     3   502     0 -2.169239591E+01  3.554602955E+01  6.235671867E+01  7.513323579E+01  4.750000000E+00  0.00000E+00  9.000E+00
      -5     1     4     4     0   504  1.419949825E+00 -4.082391729E+01  4.256745192E+00  4.134357096E+01  4.750000000E+00  0.00000E+00  9.000E+00
      21     1     1     2   503   511  1.464320694E+01  3.585671049E+00  2.547599509E+02  2.552056291E+02  0.000000000E+00  0.00000E+00  9.000E+00
</event>
<event>
     13  10001  1.00000E+00  1.36679E+01 -1.00000E+00  1.86561E-01
      21    -1     0     0   502   503  0.000000000E+00  0.000000000E+00  1.069241093E+03  1.069241093E+03  0.000000000E+00  0.00000E+00  9.000E+00
      21    -1     0     0   512   504  0.000000000E+00  0.000000000E+00 -5.940594136E+01  5.940594136E+01  0.000000000E+00  0.00000E+00  9.000E+00
       6     2     1     2   502     0  2.536636098E+01  8.545016478E+01  8.390264428E+02  8.611007808E+02  1.720000000E+02  0.00000E+00  9.000E+00
      -6     2     1     2     0   504 -1.171109585E+01 -8.486356758E+01  1.572677396E+02  2.483064976E+02  1.720000000E+02  0.00000E+00  9.000E+00
      24     2     3     3     0     0  7.073923543E+01  9.963132188E+01  6.283450658E+02  6.450706716E+02  7.980106467E+01  0.00000E+00  9.000E+00
     -24     2     4     4     0     0  3.648354066E+01 -9.864559649E+01  8.572934619E+01  1.608252337E+02  8.633210622E+01  0.00000E+00  9.000E+00
     -11     1     5     5     0     0  5.138201709E+01  1.097974777E+02  5.703578469E+02  5.830983376E+02  7.629394531E-06  0.00000E+00  9.000E+00
      12     1     5     5     0     0  1.935721834E+01 -1.016615584E+01  5.798721896E+01  6.197233406E+01  9.536743164E-07  0.00000E+00  9.000E+00
      13     1     6     6     0     0 -2.162066740E+01 -5.182894384E+00  3.035809889E+01  3.762884294E+01  7.539457465E-07  0.00000E+00  9.000E+00
     -14     1     6     6     0     0  5.810420805E+01 -9.346270210E+01  5.537124729E+01  1.231963908E+02  2.023048729E-06  0.00000E+00  9.000E+00
       5     1     3     3   502     0 -4.537287445E+01 -1.418115710E+01  2.106813770E+02  2.160301091E+02  4.750000000E+00  0.00000E+00  9.000E+00
      -5     1     4     4     0   504 -4.819463651E+01  1.378202891E+01  7.153839337E+01  8.748126391E+01  4.750000000E+00  0.00000E+00  9.000E+00
      21     1     1     2   512   503 -1.365526513E+01 -5.865972023E-01  1.354096955E+01  1.923975619E+01  3.769728732E-07  0.00000E+00  9.000E+00
</event>
<event>
     13  10001  1.00000E+00  5.90171E+01 -1.00000E+00  1.37947E-01
      21    -1     0     0   503   504  0.000000000E+00  0.000000000E+00  7.792596565E+02  7.792596565E+02  0.000000000E+00  0.00000E+00  9.000E+00
      21    -1     0     0   511   503  0.000000000E+00  0.000000000E+00 -1.171269592E+02  1.171269592E+02  0.000000000E+00  0.00000E+00  9.000E+00
       6     2     1     2   502     0 -1.558252640E+02 -7.827643922E+00  4.202778149E+02  4.801668737E+02  1.720000000E+02  0.00000E+00  9.000E+00
      -6     2     1     2     0   504  1.109185050E+02 -3.046597922E+01  2.783471312E+02  3.468316826E+02  1.720000000E+02  0.00000E+00  9.000E+00
      24     2     3     3     0     0 -1.605427566E+02  2.865457084E+01  3.944872948E+02  4.349903294E+02  8.367376999E+01  0.00000E+00  9.000E+00
     -24     2     4     4     0     0  1.088746023E+02 -7.092784616E+01  2.609589972E+02  3.024892659E+02  8.072000617E+01  0.00000E+00  9.000E+00
     -11     1     5     5     0     0 -2.704285215E+01  4.077609960E+01  1.170979196E+02  1.269091365E+02  2.697398305E-06  0.00000E+00  9.000E+00
      12     1     5     5     0     0 -1.334999044E+02 -1.212152876E+01  2.773893752E+02  3.080811929E+02  6.607249480E-06  0.00000E+00  9.000E+00
      13     1     6     6     0     0  1.056955475E+02 -4.401057287E+01  1.525033561E+02  1.906980674E+02  3.303624740E-06  0.00000E+00  9.000E+00
     -14     1     6     6     0     0  3.179054860E+00 -2.691727329E+01  1.084556411E+02  1.117911985E+02  3.814697266E-06  0.00000E+00  9.000E+00
       5     1     3     3   502     0  4.717492547E+00 -3.648221476E+01  2.579052008E+01  4.517654431E+01  4.750000000E+00  0.00000E+00  9.000E+00
      -5     1     4     4     0   504  2.043902697E+00  4.046186694E+01  1.738813395E+01  4.434241668E+01  4.750000000E+00  0.00000E+00  9.000E+00
      21     1     1     2   511   502  4.490675900E+01  3.829362314E+01 -3.649224872E+01  6.938805945E+01  1.651812370E-06  0.00000E+00  9.000E+00
</event>
<event>
     13  10001  1.00000E+00  2.13408E+01 -1.00000E+00  1.68364E-01
      21    -1     0     0   503   504  0.000000000E+00  0.000000000E+00  4.084420959E+02  4.084420959E+02  0.000000000E+00  0.00000E+00  9.000E+00
      21    -1     0     0   502   512  0.000000000E+00  0.000000000E+00 -3.301686251E+02  3.301686251E+02  0.000000000E+00  0.00000E+00  9.000E+00
       6     2     1     2   502     0  1.363579934E+02  5.147637050E+01 -2.314590984E+02  3.231108685E+02  1.720000000E+02  0.00000E+00  9.000E+00
      -6     2     1     2     0   504 -1.508232031E+02 -6.716676140E+01  3.134686237E+02  3.938344709E+02  1.720000000E+02  0.00000E+00  9.000E+00
      24     2     3     3     0     0  1.309532261E+02  6.347233500E+01 -2.491841593E+02  3.005309004E+02  8.395589397E+01  0.00000E+00  9.000E+00
     -24     2     4     4     0     0 -1.467557681E+02 -8.024889044E+01  1.759665140E+02  2.555699462E+02  7.984136439E+01  0.00000E+00  9.000E+00
     -11     1     5     5     0     0  8.865633739E+01  7.144382315E+00 -1.848398825E+02  2.051262307E+02  4.672030912E-06  0.00000E+00  9.000E+00
      12     1     5     5     0     0  4.229688869E+01  5.632795268E+01 -6.434427675E+01  9.540466968E+01  2.132480600E-06  0.00000E+00  9.000E+00
      13     1     6     6     0     0 -4.266349865E+01 -6.813791644E+01  7.122270829E+01  1.074040220E+02  2.336015456E-06  0.00000E+00  9.000E+00
     -14     1     6     6     0     0 -1.040922694E+02 -1.211097400E+01  1.047438058E+02  1.481659242E+02  1.907348633E-06  0.00000E+00  9.000E+00
       5     1     3     3   502     0  5.404767339E+00 -1.199596450E+01  1.772506088E+01  2.257996806E+01  4.750000000E+00  0.00000E+00  9.000E+00
      -5     1     4     4     0   504 -4.067435033E+00  1.308212905E+01  1.375021096E+02  1.382645247E+02  4.750000000E+00  0.00000E+00  9.000E+00
      21     1     1     2   503   512  1.446520971E+01  1.569039090E+01 -3.736054531E+00  2.166538165E+01  3.125693942E-07  0.00000E+00  9.000E+00
</event>
<event>
     13  10001  1.00000E+00  1.11922E+01 -1.00000E+00  1.96122E-01
      21    -1     0     0   503   504  0.000000000E+00  0.000000000E+00  7.907302539E+01  7.907302539E+01  0.000000000E+00  0.00000E+00  9.000E+00
      21    -1     0     0   502   511  0.000000000E+00  0.000000000E+00 -4.922459700E+02  4.922459700E+02  0.000000000E+00  0.00000E+00  9.000E+00
       6     2     1     2   502     0  9.255269936E+00  1.243603133E+01 -2.437875064E+02  2.987585366E+02  1.720000000E+02  0.00000E+00  9.000E+00
      -6     2     1     2     0   504 -1.324401317E+01 -2.289338390E+01 -9.683045910E+01  1.991473041E+02  1.720000000E+02  0.00000E+00  9.000E+00
      24     2     3     3     0     0  3.144855287E+01  1.712127758E+01 -4.734008156E+01  1.009489145E+02  8.165445733E+01  0.00000E+00  9.000E+00
     -24     2     4     4     0     0  1.175079901E+01  7.093662289E+00 -1.266238761E+02  1.498099574E+02  7.887341767E+01  0.00000E+00  9.000E+00
     -11     1     5     5     0     0 -2.699833509E+01  8.471081857E+00 -2.508035009E+01  3.781128517E+01  9.536743164E-07  0.00000E+00  9.000E+00
      12     1     5     5     0     0  5.844688796E+01  8.650195721E+00 -2.225973147E+01  6.313762938E+01  9.830249847E-07  0.00000E+00  9.000E+00
      13     1     6     6     0     0  3.681114234E+01 -5.539287080E+00 -1.122846185E+02  1.182944608E+02  0.000000000E+00  0.00000E+00  9.000E+00
     -14     1     6     6     0     0 -2.506034333E+01  1.263294937E+01 -1.433925760E+01  3.151549660E+01  3.371747881E-07  0.00000E+00  9.000E+00
       5     1     3     3   502     0 -2.219328294E+01 -4.685246245E+00 -1.964474248E+02  1.978096220E+02  4.750000000E+00  0.00000E+00  9.000E+00
      -5     1     4     4     0   504 -2.499481218E+01 -2.998704619E+01  2.979341704E+01  4.933734665E+01  4.750000000E+00  0.00000E+00  9.000E+00
      21     1     1     2   503   511  3.988743234E+00  1.045735257E+01 -7.255497911E+01  7.341315474E+01  9.536743164E-07  0.00000E+00  9.000E+00
</event>
<event>
     13  10001  1.00000E+00  5.94888E+01 -1.00000E+00  1.37754E-01
      21    -1     0     0   502   503  0.000000000E+00  0.000000000E+00  1.847762254E+02  1.847762254E+02  0.000000000E+00  0.00000E+00  9.000E+00
      21    -1     0     0   512   504  0.000000000E+00  0.000000000E+00 -2.925422397E+02  2.925422397E+02  0.000000000E+00  0.00000E+00  9.000E+00
       6     2     1     2   502     0  9.709284072E+01  1.064600889E+01 -8.285469889E+01  2.144510628E+02  1.720000000E+02  0.00000E+00  9.000E+00
      -6     2     1     2     0   504 -7.054681799E+01  4.259147370E+01  1.487332599E+01  1.913010794E+02  1.720000000E+02  0.00000E+00  9.000E+00
      24     2     3     3     0     0  1.136531081E+02  5.085466138E+01 -8.389068037E+01  1.706947610E+02  8.121471314E+01  0.00000E+00  9.000E+00
     -24     2     4     4     0     0 -4.513129173E+01  3.009149488E+01  7.674756703E+01  1.230868386E+02  7.948489942E+01  0.00000E+00  9.000E+00
     -11     1     5     5     0     0  7.801883703E+00  3.319775262E+00 -4.871236813E+01  4.944476824E+01  6.743495762E-07  0.00000E+00  9.000E+00
      12     1     5     5     0     0  1.058512244E+02  4.753488612E+01 -3.517831224E+01  1.212499928E+02  1.581489940E-06  0.00000E+00  9.000E+00
      13     1     6     6     0     0  1.541431689E+01 -7.158333261E+00  3.912779323E+01  4.265943158E+01  4.768371582E-07  0.00000E+00  9.000E+00
     -14     1     6     6     0     0 -6.054560861E+01  3.724982814E+01  3.761977380E+01  8.042740702E+01  8.259061849E-07  0.00000E+00  9.000E+00
       5     1     3     3   502     0 -1.656026736E+01 -4.020865249E+01  1.035981483E+00  4.375630180E+01  4.750000000E+00  0.00000E+00  9.000E+00
      -5     1     4     4     0   504 -2.541552626E+01  1.249997882E+01 -6.187424104E+01  6.821424081E+01  4.750000000E+00  0.00000E+00  9.000E+00
      21     1     1     2   512   503 -2.654602273E+01 -5.323748259E+01 -3.978464143E+01  7.156632287E+01  6.743495762E-07  0.00000E+00  9.000E+00
</event>
<event>
     13  10001  1.00000E+00  4.55441E+01 -1.00000E+00  1.44574E-01
      21    -1     0     0   511   503  0.000000000E+00  0.000000000E+00  1.300981397E+02  1.300981397E+02  0.000000000E+00  0.00000E+00  9.000E+00
      21    -1     0     0   503   504  0.000000000E+00  0.000000000E+00 -5.493132336E+02  5.493132336E+02  0.000000000E+00  0.00000E+00  9.000E+00
       6     2     1     2   502     0  8.029754193E+01  2.716955940E+01 -1.275360717E+02  2.302940073E+02  1.720000000E+02  0.00000E+00  9.000E+00
      -6     2     1     2     0   504 -3.478041358E+01 -2.873758444E+01 -3.393941731E+02  3.831552305E+02  1.720000000E+02  0.00000E+00  9.000E+00
      24     2     3     3     0     0 -4.847136021E+00 -1.723297322E+01 -9.903282050E+01  1.300134064E+02  8.231352386E+01  0.00000E+00  9.000E+00
     -24     2     4     4     0     0 -6.961254527E+01 -3.582821449E+01 -3.258477680E+02  3.448195810E+02  8.120472968E+01  0.00000E+00  9.000E+00
     -11     1     5     5     0     0 -7.995138135E+00  1.937303155E+01  3.362454267E+00  2.122599077E+01  6.989264130E-07  0.00000E+00  9.000E+00
      12     1     5     5     0     0  3.148002114E+00 -3.660600477E+01 -1.023952748E+02  1.087874156E+02  1.348699152E-06  0.00000E+00  9.000E+00
      13     1     6     6     0     0 -7.768029165E+00 -4.491029795E+01 -9.072592628E+01  1.015306399E+02  0.000000000E+00  0.00000E+00  9.000E+00
     -14     1     6     6     0     0 -6.184451610E+01  9.082083454E+00 -2.351218417E+02  2.432889411E+02  2.697398305E-06  0.00000E+00  9.000E+00
       5     1     3     3   502     0  8.514467795E+01  4.440253262E+01 -2.850325123E+01  1.002806009E+02  4.750000000E+00  0.00000E+00  9.000E+00
      -5     1     4     4     0   504  3.483213169E+01  7.090630050E+00 -1.354640513E+01  3.833564952E+01  4.750000000E+00  0.00000E+00  9.000E+00
      21     1     1     2   511   502 -4.551712835E+01  1.568025042E+00  4.771515102E+01  6.596213544E+01  1.168007728E-06  0.00000E+00  9.000E+00
</event>
<event>
     13  10001  1.00000E+00  5.21189E+01 -1.00000E+00  1.41046E-01
      21    -1     0     0   503   512  0.000000000E+00  0.000000000E+00  9.808444122E+02  9.808444122E+02  0.000000000E+00  0.00000E+00  9.000E+00
      21    -1     0     0   502   503  0.000000000E+00  0.000000000E+00 -1.069658132E+02  1.069658132E+02  0.000000000E+00  0.00000E+00  9.000E+00
       6     2     1     2   502     0 -8.916706684E+01  6.078598173E+01  6.877298815E+02  7.170788599E+02  1.720000000E+02  0.00000E+00  9.000E+00
      -6     2     1     2     0   504  5.703788060E+01 -1.974820337E+01  5.126575434E+00  1.823556776E+02  1.720000000E+02  0.00000E+00  9.000E+00
      24     2     3     3     0     0 -4.191220905E+01 -1.787079255E+01  4.950008588E+02  5.035678568E+02  8.049060660E+01  0.00000E+00  9.000E+00
     -24     2     4     4     0     0  7.732232800E+01 -4.701716497E+01 -3.943389011E+01  1.261128766E+02  7.848611176E+01  0.00000E+00  9.000E+00
     -11     1     5     5     0     0  1.406279699E+01  6.446040102E+00  2.698315141E+02  2.702746005E+02  0.000000000E+00  0.00000E+00  9.000E+00
      12     1     5     5     0     0 -5.597500605E+01 -2.431683265E+01  2.251693447E+02  2.332932563E+02  0.000000000E+00  0.00000E+00  9.000E+00
      13     1     6     6     0     0  6.967887607E+01  1.332973686E+00 -1.452491793E+01  7.118915528E+01  2.016012016E-06  0.00000E+00  9.000E+00
     -14     1     6     6     0     0  7.643451930E+00 -4.835013865E+01 -2.490897217E+01  5.492372129E+01  2.078484985E-06  0.00000E+00  9.000E+00
       5     1     3     3   502     0 -4.725485779E+01  7.865677428E+01  1.927290227E+02  2.135110031E+02  4.750000000E+00  0.00000E+00  9.000E+00
      -5     1     4     4     0   504 -2.028444740E+01  2.726896160E+01  4.456046554E+01  5.624280098E+01  4.750000000E+00  0.00000E+00  9.000E+00
      21     1     1     2   504   512  3.212918624E+01 -4.103777836E+01  1.810221421E+02  1.883756879E+02  3.814697266E-06  0.00000E+00  9.000E+00
</event>
<event>
     13  10001  1.00000E+00  5.66553E+01 -1.00000E+00  1.38950E-01
      21    -1     0     0   502   503  0.000000000E+00  0.000000000E+00  4.038330708E+01  4.038330708E+01  0.000000000E+00  0.00000E+00  9.000E+00
       2    -1     0     0   503     0  0.000000000E+00  0.000000000E+00 -1.744387970E+03  1.744387970E+03  0.000000000E+00  0.00000E+00  9.000E+00
       6     2     1     2   502     0  4.480447206E+01  5.540617261E+01 -2.859147150E+02  3.411869120E+02  1.720000000E+02  0.00000E+00  9.000E+00
      -6     2     1     2     0   504  7.989361693E+00 -3.484810450E+01 -6.473190230E+02  6.707340291E+02  1.720000000E+02  0.00000E+00  9.000E+00
      24     2     3     3     0     0  4.789275257E+01 -2.542652125E+01 -1.094857351E+02  1.470395213E+02  8.181241288E+01  0.00000E+00  9.000E+00
     -24     2     4     4     0     0 -1.614732000E+01  3.918546938E+01 -4.403245890E+02  4.495264170E+02  7.995010276E+01  0.00000E+00  9.000E+00
     -11     1     5     5     0     0  5.896731946E+01 -6.019812796E+00 -3.403619893E+01  6.835090159E+01  1.261592536E-06  0.00000E+00  9.000E+00
      12     1     5     5     0     0 -1.107456689E+01 -1.940670846E+01 -7.544953613E+01  7.868861968E+01  1.348699152E-06  0.00000E+00  9.000E+00
      13     1     6     6     0     0  2.281455731E+01  4.539609560E+01 -2.318731638E+02  2.373741216E+02  4.672030912E-06  0.00000E+00  9.000E+00
     -14     1     6     6     0     0 -3.896187731E+01 -6.210626225E+00 -2.084514252E+02  2.121522953E+02  3.814697266E-06  0.00000E+00  9.000E+00
       5     1     3     3   502     0 -3.088280512E+00  8.083269386E+01 -1.764289799E+02  1.941473907E+02  4.750000000E+00  0.00000E+00  9.000E+00
      -5     1     4     4     0   504  2.413668169E+01 -7.403357388E+01 -2.069944340E+02  2.212076122E+02  4.750000000E+00  0.00000E+00  9.000E+00
       2     1     1     2   504     0 -5.279383375E+01 -2.055806810E+01 -7.707709251E+02  7.728503362E+02  1.078959322E-05  0.00000E+00  9.000E+00
</event>
<event>
     13  10001  1.00000E+00  2.04597E+01 -1.00000E+00  1.69928E-01
      21    -1     0     0   503   504  0.000000000E+00  0.000000000E+00  4.522153507E+02  4.522153507E+02  0.000000000E+00  0.00000E+00  9.000E+00
      21    -1     0     0   502   511  0.000000000E+00  0.000000000E+00 -9.856698645E+01  9.856698645E+01  0.000000000E+00  0.00000E+00  9.000E+00
       6     2     1     2   502     0  3.670231525E+01 -3.236043305E+01  1.615807968E+02  2.410116417E+02  1.720000000E+02  0.00000E+00  9.000E+00
      -6     2     1     2     0   504 -4.790357642E+01  1.523941928E+01  2.144386185E+02  2.794546719E+02  1.720000000E+02  0.00000E+00  9.000E+00
      24     2     3     3     0     0  8.004955145E+00 -8.015883069E+01  1.397425856E+02  1.809475488E+02  8.200309599E+01  0.00000E+00  9.000E+00
     -24     2     4     4     0     0 -4.541226436E+01  5.072054949E+01  2.192694459E+02  2.432467082E+02  8.034315950E+01  0.00000E+00  9.000E+00
     -11     1     5     5     0     0  2.793055489E+01 -1.217884228E+01  8.218597966E+00  3.155923713E+01  1.369610464E-06  0.00000E+00  9.000E+00
      12     1     5     5     0     0 -1.992559975E+01 -6.797998841E+01  1.315239876E+02  1.493883117E+02  1.907348633E-06  0.00000E+00  9.000E+00
      13     1     6     6     0     0  1.458285437E+01  4.205057184E+01  9.996790907E+01  1.094280269E+02  1.348699152E-06  0.00000E+00  9.000E+00
     -14     1     6     6     0     0 -5.999511872E+01  8.669977655E+00  1.193015368E+02  1.338186813E+02  2.697398305E-06  0.00000E+00  9.000E+00
       5     1     3     3   502     0  2.869736010E+01  4.779839763E+01  2.183821121E+01  6.006409295E+01  4.750000000E+00  0.00000E+00  9.000E+00
      -5     1     4     4     0   504 -2.491312061E+00 -3.548113021E+01 -4.830827401E+00  3.620796363E+01  4.750000000E+00  0.00000E+00  9.000E+00
      21     1     1     2   503   511  1.120126117E+01  1.712101377E+01 -2.237105096E+01  3.031602358E+01  7.152557373E-07  0.00000E+00  9.000E+00
</event>
<event>
     13  10001  1.00000E+00  3.85207E+01 -1.00000E+00  1.49216E-01
      21    -1     0     0   503   512  0.000000000E+00  0.000000000E+00  6.595387834E+01  6.595387834E+01  0.000000000E+00  0.00000E+00  9.000E+00
      21    -1     0     0   502   503  0.000000000E+00  0.000000000E+00 -6.594987491E+02  6.594987491E+02  0.000000000E+00  0.00000E+00  9.000E+00
       6     2     1     2   502     0  1.395130280E+01  6.611472679E+01 -2.517870951E+02  3.123244102E+02  1.720000000E+02  0.00000E+00  9.000E+00
      -6     2     1     2     0   504 -4.458249319E+01 -4.275720333E+01 -3.209789423E+02  3.693606078E+02  1.720000000E+02  0.00000E+00  9.000E+00
      24     2     3     3     0     0 -1.610365617E+01  2.243875941E+00 -2.204281364E+02  2.349375061E+02  7.964110556E+01  0.00000E+00  9.000E+00
     -24     2     4     4     0     0 -6.060031159E+01 -4.516581992E+01 -1.062094664E+02  1.539288037E+02  8.186132651E+01  0.00000E+00  9.000E+00
     -11     1     5     5     0     0 -1.509035194E+01  8.242830021E+00 -3.036686654E+00  1.746094025E+01  1.046057270E-06  0.00000E+00  9.000E+00
      12     1     5     5     0     0 -1.013304231E+00 -5.998954080E+00 -2.173914498E+02  2.174765658E+02  2.697398305E-06  0.00000E+00  9.000E+00
      13     1     6     6     0     0 -3.102077015E+01  2.173937251E+01 -3.029264449E+01  4.850291546E+01  8.920806376E-07  0.00000E+00  9.000E+00
     -14     1     6     6     0     0 -2.957954144E+01 -6.690519243E+01 -7.591682195E+01  1.054258882E+02  2.132480600E-06  0.00000E+00  9.000E+00
       5     1     3     3   502     0  3.005495897E+01  6.387085085E+01 -3.135895869E+01  7.738690417E+01  4.750000000E+00  0.00000E+00  9.000E+00
      -5     1     4     4     0   504  1.601781840E+01  2.408616586E+00 -2.147694759E+02  2.154318041E+02  4.750000000E+00  0.00000E+00  9.000E+00
      21     1     1     2   504   512  3.063119039E+01 -2.335752346E+01 -2.077883332E+01  4.376760950E+01  6.307962682E-07  0.00000E+00  9.000E+00
</event>
<event>
     13  10001  1.00000E+00  1.23299E+01 -1.00000E+00  1.91366E-01
      21    -1     0     0   503   511  0.000000000E+00  0.000000000E+00  6.748420280E+02  6.748420280E+02  0.000000000E+00  0.00000E+00  9.000E+00
      21    -1     0     0   502   503  0.000000000E+00  0.000000000E+00 -8.570121192E+01  8.570121192E+01  0.000000000E+00  0.00000E+00  9.000E+00
       6     2     1     2   502     0  8.364163795E+01  1.332858855E+02  2.477780997E+02  3.402044055E+02  1.720000000E+02  0.00000E+00  9.000E+00
      -6     2     1     2     0   504 -8.666092866E+01 -1.213313408E+02  2.964359178E+02  3.737508049E+02  1.720000000E+02  0.00000E+00  9.000E+00
      24     2     3     3     0     0  9.050881286E+00  4.114301846E+01  1.870184973E+02  2.069063159E+02  7.784368177E+01  0.00000E+00  9.000E+00
     -24     2     4     4     0     0 -6.114518949E+01  1.645798365E+00  1.802883492E+02  2.026156247E+02  6.933801034E+01  0.00000E+00  9.000E+00
     -11     1     5     5     0     0  2.802624339E+01 -1.293732464E+01  7.420246937E+01  8.036697797E+01  1.348699152E-06  0.00000E+00  9.000E+00
      12     1     5     5     0     0 -1.897536210E+01  5.408034311E+01  1.128160280E+02  1.265393379E+02  1.907348633E-06  0.00000E+00  9.000E+00
      13     1     6     6     0     0 -2.995697795E+01 -1.153563574E+01  1.599026771E+02  1.630930948E+02  4.264961200E-06  0.00000E+00  9.000E+00
     -14     1     6     6     0     0 -3.118821154E+01  1.318143411E+01  2.038567201E+01  3.952252987E+01  7.152557373E-07  0.00000E+00  9.000E+00
       5     1     3     3   502     0  7.459075666E+01  9.214286703E+01  6.075960232E+01  1.332980896E+02  4.750000000E+00  0.00000E+00  9.000E+00
      -5     1     4     4     0   504 -2.551573917E+01 -1.229771392E+02  1.161475686E+02  1.711351802E+02  4.750000000E+00  0.00000E+00  9.000E+00
      21     1     1     2   504   511  3.019290710E+00 -1.195454465E+01  4.492679866E+01  4.658802949E+01  8.259061849E-07  0.00000E+00  9.000E+00
</event>
<event>
     13  10001  1.00000E+00  9.54358E+00 -1.00000E+00  2.04511E-01
      21    -1     0     0   503   504  0.000000000E+00  0.000000000E+00  1.723766924E+02  1.723766924E+02  0.000000000E+00  0.00000E+00  9.000E+00
      21    -1     0     0   512   503  0.000000000E+00  0.000000000E+00 -4.345116029E+02  4.345116029E+02  0.000000000E+00  0.00000E+00  9.000E+00
       6     2     1     2   502     0 -1.150789653E+02 -1.280486628E+02 -8.328976500E+00  2.435015403E+02  1.720000000E+02  0.00000E+00  9.000E+00
      -6     2     1     2     0   504  1.106532414E+02  1.195933108E+02 -2.039089366E+02  3.125852751E+02  1.720000000E+02  0.00000E+00  9.000E+00
      24     2     3     3     0     0 -4.615769678E+01  1.578573924E+00 -1.077695336E+01  9.659368881E+01  8.414970664E+01  0.00000E+00  9.000E+00
     -24     2     4     4     0     0  5.008887083E+01  5.555875211E+01 -2.352854394E+01  1.117666599E+02  7.963996462E+01  0.00000E+00  9.000E+00
     -11     1     5     5     0     0  2.453564778E+01 -7.667254374E-01 -7.957848511E+00  2.580529466E+01  1.076189881E-06  0.00000E+00  9.000E+00
      12     1     5     5     0     0 -7.069334456E+01  2.345299362E+00 -2.819104852E+00  7.078839415E+01  1.402610138E-06  0.00000E+00  9.000E+00
      13     1     6     6     0     0  5.707878443E+01  1.990076814E+01 -3.935738168E+01  7.213204349E+01  1.581489940E-06  0.00000E+00  9.000E+00
     -14     1     6     6     0     0 -6.989913604E+00  3.565798397E+01  1.582883774E+01  3.963461640E+01  7.152557373E-07  0.00000E+00  9.000E+00
       5     1     3     3   502     0 -6.892126856E+01 -1.296272367E+02  2.447976863E+00  1.469078515E+02  4.750000000E+00  0.00000E+00  9.000E+00
      -5     1     4     4     0   504  6.056437057E+01  6.403455870E+01 -1.803803926E+02  2.008186153E+02  4.750000000E+00  0.00000E+00  9.000E+00
      21     1     1     2   512   502  4.425723949E+00  8.455351947E+00 -4.989699737E+01  5.080147986E+01  0.000000000E+00  0.00000E+00  9.000E+00
</event>
<event>
     13  10001  1.00000E+00  2.26042E+02 -1.00000E+00  1.11608E-01
      21    -1     0     0   503   511  0.000000000E+00  0.000000000E+00  2.537846060E+02  2.537846060E+02  0.000000000E+00  0.00000E+00  9.000E+00
      21    -1     0     0   502   503  0.000000000E+00  0.000000000E+00 -6.323533419E+02  6.323533419E+02  0.000000000E+00  0.00000E+00  9.000E+00
       6     2     1     2   502     0 -4.915026237E+00  9.633740284E+01  4.218789792E+01  2.016652459E+02  1.720000000E+02  0.00000E+00  9.000E+00
      -6     2     1     2     0   504  2.032250678E+01  1.291790617E+02 -4.035805745E+02  4.577788925E+02  1.720000000E+02  0.00000E+00  9.000E+00
      24     2     3     3     0     0 -5.962207445E+01  4.494958662E+01  5.963055899E+01  1.244617634E+02  7.974753845E+01  0.00000E+00  9.000E+00
     -24     2     4     4     0     0  4.264215093E+01  1.440040985E+02 -3.931887586E+02  4.286498594E+02  8.116507045E+01  0.00000E+00  9.000E+00
     -11     1     5     5     0     0 -5.426573249E+01  5.511296494E+01  7.333123792E+01  1.065817953E+02  1.651812370E-06  0.00000E+00  9.000E+00
      12     1     5     5     0     0 -5.356341959E+00 -1.016337832E+01 -1.370067893E+01  1.787996816E+01  5.840038640E-07  0.00000E+00  9.000E+00
      13     1     6     6     0     0  1.283119480E+01  3.669786093E+00 -4.110935964E+00  1.396447938E+01  2.230201594E-07  0.00000E+00  9.000E+00
     -14     1     6     6     0     0  2.981095613E+01  1.403343124E+02 -3.890778226E+02  4.146853800E+02  5.394796609E-06  0.00000E+00  9.000E+00
       5     1     3     3   502     0  5.470704821E+01  5.138781623E+01 -1.744266107E+01  7.720348247E+01  4.750000000E+00  0.00000E+00  9.000E+00
      -5     1     4     4     0   504 -2.231964415E+01 -1.482503677E+01 -1.039181593E+01  2.912903308E+01  4.750000000E+00  0.00000E+00  9.000E+00
      21     1     1     2   504   511 -1.540748055E+01 -2.255164646E+02 -1.717605928E+01  2.266938095E+02  3.071808511E-06  0.00000E+00  9.000E+00
</event>
<event>
     13  10001  1.00000E+00  1.02547E+02 -1.00000E+00  1.25707E-01
      21    -1     0     0   512   504  0.000000000E+00  0.000000000E+00  2.099625471E+02  2.099625471E+02  0.000000000E+00  0.00000E+00  9.000E+00
      21    -1     0     0   502   503  0.000000000E+00  0.000000000E+00 -3.761444762E+02  3.761444762E+02  0.000000000E+00  0.00000E+00  9.000E+00
       6     2     1     2   502     0  1.417372288E+01 -1.110060032E+01 -2.039330548E+02  2.673888715E+02  1.720000000E+02  0.00000E+00  9.000E+00
      -6     2     1     2     0   504 -1.159770747E+02 -1.230801028E+00 -5.254039898E+00  2.075181960E+02  1.720000000E+02  0.00000E+00  9.000E+00
      24     2     3     3     0     0  4.012508696E+01 -1.940916810E+01 -3.810861500E+01  9.927339649E+01  8.010120039E+01  0.00000E+00  9.000E+00
     -24     2     4     4     0     0 -1.913498869E+01  2.101910856E+01 -4.991443836E+01  9.847434336E+01  7.998621398E+01  0.00000E+00  9.000E+00
     -11     1     5     5     0     0  4.778752539E+00  2.142130117E+01 -3.956983062E+01  4.524908966E+01  8.259061849E-07  0.00000E+00  9.000E+00
      12     1     5     5     0     0  3.534633442E+01 -4.083046927E+01  1.461215617E+00  5.402430683E+01  6.730311984E-07  0.00000E+00  9.000E+00
      13     1     6     6     0     0 -1.047616020E+01  2.749399808E+00 -6.949210798E+01  7.033108988E+01  9.536743164E-07  0.00000E+00  9.000E+00
     -14     1     6     6     0     0 -8.658828484E+00  1.826970875E+01  1.957766962E+01  2.814325348E+01  7.907449699E-07  0.00000E+00  9.000E+00
       5     1     3     3   502     0 -2.595136408E+01  8.308567780E+00 -1.658244398E+02  1.681154750E+02  4.750000000E+00  0.00000E+00  9.000E+00
      -5     1     4     4     0   504 -9.684208606E+01 -2.224990959E+01  4.466039846E+01  1.090438526E+02  4.750000000E+00  0.00000E+00  9.000E+00
      21     1     1     2   512   503  1.018033519E+02  1.233140135E+01  4.300516559E+01  1.111999558E+02  1.507891493E-06  0.00000E+00  9.000E+00
</event>
<event>
     13  10001  1.00000E+00  1.23838E+01 -1.00000E+00  1.91158E-01
      21    -1     0     0   503   511  0.000000000E+00  0.000000000E+00  1.953096495E+02  1.953096495E+02  0.000000000E+00  0.00000E+00  9.000E+00
      21    -1     0     0   502   503  0.000000000E+00  0.000000000E+00 -1.357887862E+03  1.357887862E+03  0.000000000E+00  0.00000E+00  9.000E+00
       6     2     1     2   502     0  2.253694469E+01  3.893880815E+02 -9.929147948E+02  1.080552998E+03  1.720000000E+02  0.00000E+00  9.000E+00
      -6     2     1     2     0   504 -3.491080913E+01 -3.898842751E+02 -1.585838709E+02  4.560278025E+02  1.720000000E+02  0.00000E+00  9.000E+00
      24     2     3     3     0     0  2.480941044E+01  1.104192782E+02 -4.337842633E+02  4.556703922E+02  8.160144254E+01  0.00000E+00  9.000E+00
     -24     2     4     4     0     0 -3.764097705E+01 -1.703398188E+02 -1.357475359E+02  2.352308759E+02  8.045914766E+01  0.00000E+00  9.000E+00
     -11     1     5     5     0     0  5.466538872E+01  6.794646848E+01 -2.882719993E+02  3.011739911E+02  3.814697266E-06  0.00000E+00  9.000E+00
      12     1     5     5     0     0 -2.985597828E+01  4.247280970E+01 -1.455122640E+02  1.544964012E+02  2.697398305E-06  0.00000E+00  9.000E+00
      13     1     6     6     0     0 -2.792559397E+01 -6.134208842E+01 -9.350444694E+00  6.804499560E+01  1.850625836E-06  0.00000E+00  9.000E+00
     -14     1     6     6     0     0 -9.715383074E+00 -1.089977303E+02 -1.263970912E+02  1.671858803E+02  2.336015456E-06  0.00000E+00  9.000E+00
       5     1     3     3   502     0 -2.272465747E+00  2.789688033E+02 -5.591305315E+02  6.248826058E+02  4.750000000E+00  0.00000E+00  9.000E+00
      -5     1     4     4     0   504  2.730167917E+00 -2.195444563E+02 -2.283633498E+01  2.207969267E+02  4.750000000E+00  0.00000E+00  9.000E+00
      21     1     1     2   504   511  1.237386444E+01  4.961936433E-01 -1.107954701E+01  1.661671120E+01  2.920019320E-07  0.00000E+00  9.000E+00
</event>
<event>
     13  10001  1.00000E+00  1.82548E+01 -1.00000E+00  1.74310E-01
      21    -1     0     0   512   503  0.000000000E+00  0.000000000E+00  5.485135233E+02  5.485135233E+02  0.000000000E+00  0.00000E+00  9.000E+00
      21    -1     0     0   503   504  0.000000000E+00  0.000000000E+00 -1.177025720E+02  1.177025720E+02  0.000000000E+00  0.00000E+00  9.000E+00
       6     2     1     2   502     0 -4.953842613E+01  1.071604777E+02  3.069111092E+02  3.711008658E+02  1.720000000E+02  0.00000E+00  9.000E+00
      -6     2     1     2     0   504  6.116288604E+01 -1.212356761E+02  5.793396309E+01  2.266700948E+02  1.720000000E+02  0.00000E+00  9.000E+00
      24     2     3     3     0     0  1.281236508E+01  9.335666249E+01  2.695733863E+02  2.969737147E+02  8.151045017E+01  0.00000E+00  9.000E+00
     -24     2     4     4     0     0  7.107401823E+01 -1.518187920E+02  4.323882837E+01  1.910040465E+02  8.069998659E+01  0.00000E+00  9.000E+00
     -11     1     5     5     0     0 -3.385244334E+01  4.333099193E+01  1.000067565E+02  1.141267459E+02  2.697398305E-06  0.00000E+00  9.000E+00
      12     1     5     5     0     0  4.666480842E+01  5.002567056E+01  1.695666298E+02  1.828469688E+02  3.814697266E-06  0.00000E+00  9.000E+00
      13     1     6     6     0     0  2.032417858E+01 -3.651170761E+01  4.960741259E+01  6.486194887E+01  6.743495762E-07  0.00000E+00  9.000E+00
     -14     1     6     6     0     0  5.074983966E+01 -1.153070844E+02 -6.368584221E+00  1.261420976E+02  2.744403942E-06  0.00000E+00  9.000E+00
       5     1     3     3   502     0 -6.235079122E+01  1.380381516E+01  3.733772292E+01  7.412715110E+01  4.750000000E+00  0.00000E+00  9.000E+00
      -5     1     4     4     0   504 -9.911132196E+00  3.058311585E+01  1.469513472E+01  3.566604829E+01  4.750000000E+00  0.00000E+00  9.000E+00
      21     1     1     2   512   502 -1.162445991E+01  1.407519847E+01  6.596587902E+01  6.844513478E+01  0.000000000E+00  0.00000E+00  9.000E+00
</event>
<event>
     13  10001  1.00000E+00  5.06023E+01 -1.00000E+00  1.41803E-01
      -5    -1     0     0     0   512  0.000000000E+00  0.000000000E+00  3.483813433E+02  3.483813433E+02  0.000000000E+00  0.00000E+00  9.000E+00
      21    -1     0     0   502   511  0.000000000E+00  0.000000000E+00 -1.787170125E+02  1.787170125E+02  0.000000000E+00  0.00000E+00  9.000E+00
       6     2     1     2   502     0 -9.378841834E+00 -3.445385898E+01 -5.436389086E+01  1.838870950E+02  1.720000000E+02  0.00000E+00  9.000E+00
      -6     2     1     2     0   512  5.997955280E+01  3.405166933E+01  1.029631966E+02  2.119964216E+02  1.720000000E+02  0.00000E+00  9.000E+00
      24     2     3     3     0     0  2.369494449E+01 -7.294081633E+01 -6.902916005E+01  1.308516931E+02  8.046942015E+01  0.00000E+00  9.000E+00
     -24     2     4     4     0     0  3.679589404E+01  7.050197224E+01  1.225242233E+02  1.643382336E+02  7.530208389E+01  0.00000E+00  9.000E+00
     -11     1     5     5     0     0  4.848576628E+01 -5.767690959E+01 -2.766060798E+01  8.026583747E+01  1.168007728E-06  0.00000E+00  9.000E+00
      12     1     5     5     0     0 -2.479082178E+01 -1.526390675E+01 -4.136855208E+01  5.058585568E+01  9.536743164E-07  0.00000E+00  9.000E+00
      13     1     6     6     0     0  3.219810142E+01  2.017772800E+01  7.539299267E+00  3.873886260E+01  2.230201594E-07  0.00000E+00  9.000E+00
     -14     1     6     6     0     0  4.597792621E+00  5.032424424E+01  1.149849240E+02  1.255993710E+02  2.336015456E-06  0.00000E+00  9.000E+00
       5     1     3     3   502     0 -3.307378633E+01  3.848695735E+01  1.466526919E+01  5.303540184E+01  4.750000000E+00  0.00000E+00  9.000E+00
      -5     1     4     4     0   512  2.318365876E+01 -3.645030291E+01 -1.956102672E+01  4.765818799E+01  4.750000000E+00  0.00000E+00  9.000E+00
      -5     1     1     2     0   511 -5.060071096E+01  4.021896517E-01  1.210650251E+02  1.312148392E+02  0.000000000E+00  0.00000E+00  9.000E+00
</event>
<event>
     13  10001  1.00000E+00  2.91583E+01 -1.00000E+00  1.57654E-01
      21    -1     0     0   503   512  0.000000000E+00  0.000000000E+00  5.194108324E+02  5.194108324E+02  0.000000000E+00  0.00000E+00  9.000E+00
      21    -1     0     0   502   503  0.000000000E+00  0.000000000E+00 -1.101280464E+02  1.101280464E+02  0.000000000E+00  0.00000E+00  9.000E+00
       6     2     1     2   502     0 -1.546290784E+01  4.652004356E+01  2.369603911E+02  2.968795091E+02  1.720000000E+02  0.00000E+00  9.000E+00
      -6     2     1     2     0   504 -5.085902230E+00 -6.720707635E+01  2.972361043E+01  1.871099958E+02  1.720000000E+02  0.00000E+00  9.000E+00
      24     2     3     3     0     0 -5.942407371E+01  1.709836687E+01  2.193074476E+02  2.409115891E+02  7.822443651E+01  0.00000E+00  9.000E+00
     -24     2     4     4     0     0  1.088984299E+01 -1.983477376E+01 -4.583699917E+01  9.638333098E+01  8.171113184E+01  0.00000E+00  9.000E+00
     -11     1     5     5     0     0 -4.477363342E+01 -2.175243030E+00  2.103890119E+02  2.151114740E+02  2.697398305E-06  0.00000E+00  9.000E+00
      12     1     5     5     0     0 -1.465044029E+01  1.927360990E+01  8.918435736E+00  2.580011503E+01  5.462855929E-07  0.00000E+00  9.000E+00
      13     1     6     6     0     0  1.233035315E+01  3.018640483E+01 -2.884587150E+01  4.353551364E+01  0.000000000E+00  0.00000E+00  9.000E+00
     -14     1     6     6     0     0 -1.440510162E+00 -5.002117860E+01 -1.699112767E+01  5.284781734E+01  8.920806376E-07  0.00000E+00  9.000E+00
       5     1     3     3   502     0  4.396116587E+01  2.942167669E+01  1.765294352E+01  5.596792009E+01  4.750000000E+00  0.00000E+00  9.000E+00
      -5     1     4     4     0   504 -1.597574522E+01 -4.737230259E+01  7.556060960E+01  9.072666483E+01  4.750000000E+00  0.00000E+00  9.000E+00
      21     1     1     2   504   512  2.054881007E+01  2.068703279E+01  1.425987844E+02  1.455493739E+02  0.000000000E+00  0.00000E+00  9.000E+00
</event>
<event>
     13  10001  1.00000E+00  3.68773E+01 -1.00000E+00  1.50475E-01
      21    -1     0     0   511   504  0.000000000E+00  0.000000000E+00  3.662906000E+02  3.662906000E+02  0.000000000E+00  0.00000E+00  9.000E+00
      21    -1     0     0   502   503  0.000000000E+00  0.000000000E+00 -3.378698237E+02  3.378698237E+02  0.000000000E+00  0.00000E+00  9.000E+00
       6     2     1     2   502     0  4.740043223E+01  1.596914237E+02 -1.108046077E+02  2.638367163E+02  1.720000000E+02  0.00000E+00  9.000E+00
      -6     2     1     2     0   504 -1.989006374E+01 -1.351329925E+02 -6.793727241E+01  2.299043568E+02  1.720000000E+02  0.00000E+00  9.000E+00
      24     2     3     3     0     0  3.686417617E+01  1.488649856E+02 -2.246469013E+01  1.740885799E+02  7.926171796E+01  0.00000E+00  9.000E+00
     -24     2     4     4     0     0 -8.060182181E+01 -8.035787157E+01 -4.417692871E+01  1.446204318E+02  7.752049437E+01  0.00000E+00  9.000E+00
     -11     1     5     5     0     0  2.979208509E+01  6.130221835E+01 -4.710345020E+01  8.285086197E+01  1.651812370E-06  0.00000E+00  9.000E+00
      12     1     5     5     0     0  7.072091082E+00  8.756276721E+01  2.463876006E+01  9.123771792E+01  1.390207266E-06  0.00000E+00  9.000E+00
      13     1     6     6     0     0 -6.536095644E+01 -3.184621316E+01  6.290448689E+00  7.297811771E+01  1.547426580E-06  0.00000E+00  9.000E+00
     -14     1     6     6     0     0 -1.524086536E+01 -4.851165842E+01 -5.046737740E+01  7.164231404E+01  6.743495762E-07  0.00000E+00  9.000E+00
       5     1     3     3   502     0  1.053625606E+01  1.082643811E+01 -8.833991753E+01  8.974813638E+01  4.750000000E+00  0.00000E+00  9.000E+00
      -5     1     4     4     0   504  6.071175807E+01 -5.477512091E+01 -2.376034370E+01  8.528392505E+01  4.750000000E+00  0.00000E+00  9.000E+00
      21     1     1     2   511   503 -2.751036849E+01 -2.455843118E+01  2.071626564E+02  2.104193506E+02  0.000000000E+00  0.00000E+00  9.000E+00
</event>
<event>
     13  10001  1.00000E+00  1.48898E+01 -1.00000E+00  1.82754E-01
      21    -1     0     0   503   504  0.000000000E+00  0.000000000E+00  1.251573699E+02  1.251573699E+02  0.000000000E+00  0.00000E+00  9.000E+00
      21    -1     0     0   512   503  0.000000000E+00  0.000000000E+00 -4.385550538E+02  4.385550538E+02  0.000000000E+00  0.00000E+00  9.000E+00
       6     2     1     2   502     0 -7.495798392E+00  1.598284047E+01 -1.117105785E+02  2.058516250E+02  1.720000000E+02  0.00000E+00  9.000E+00
      -6     2     1     2     0   504 -7.215003247E+00 -1.368110484E+01 -1.806538401E+01  1.736363643E+02  1.720000000E+02  0.00000E+00  9.000E+00
      24     2     3     3     0     0 -4.039201804E+01 -3.974743498E+01 -4.815267030E+01  1.150210406E+02  8.774842690E+01  0.00000E+00  9.000E+00
     -24     2     4     4     0     0  6.133196355E+01  4.454214456E+00 -1.996898241E+01  1.025465433E+02  7.959637869E+01  0.00000E+00  9.000E+00
     -11     1     5     5     0     0  2.012512240E+01 -2.334883180E+00 -3.811966862E+01  4.316921782E+01  8.259061849E-07  0.00000E+00  9.000E+00
      12     1     5     5     0     0 -6.051714045E+01 -3.741255180E+01 -1.003300168E+01  7.185182282E+01  1.415531884E-06  0.00000E+00  9.000E+00
      13     1     6     6     0     0  1.298702565E+01 -3.018891526E+01 -2.716402242E+01  4.263704438E+01  3.371747881E-07  0.00000E+00  9.000E+00
     -14     1     6     6     0     0  4.834493790E+01  3.464312971E+01  7.195040013E+00  5.990949890E+01  1.253115895E-06  0.00000E+00  9.000E+00
       5     1     3     3   502     0  3.289621965E+01  5.573027545E+01 -6.355790816E+01  9.083058438E+01  4.750000000E+00  0.00000E+00  9.000E+00
      -5     1     4     4     0   504 -6.854696680E+01 -1.813531929E+01  1.903598403E+00  7.108982100E+01  4.750000000E+00  0.00000E+00  9.000E+00
      21     1     1     2   512   502  1.471080164E+01 -2.301735633E+00 -1.836217214E+02  1.842244345E+02  0.000000000E+00  0.00000E+00  9.000E+00
</event>
<event>
     13  10001  1.00000E+00  7.57645E+01 -1.00000E+00  1.32123E-01
       2    -1     0     0   503     0  0.000000000E+00  0.000000000E+00  6.553292064E+02  6.553292064E+02  0.000000000E+00  0.00000E+00  9.000E+00
      21    -1     0     0   502   503  0.000000000E+00  0.000000000E+00 -1.773585633E+02  1.773585633E+02  0.000000000E+00  0.00000E+00  9.000E+00
       6     2     1     2   502     0 -6.617590138E+01  2.280394861E+01  2.727381278E+02  3.299535670E+02  1.720000000E+02  0.00000E+00  9.000E+00
      -6     2     1     2     0   504  8.440636128E+01 -9.634247848E+01 -6.339439128E+01  2.236272699E+02  1.720000000E+02  0.00000E+00  9.000E+00
      24     2     3     3     0     0  1.356483936E+01 -1.149671705E+01  6.519800424E+01  1.049411522E+02  8.028503162E+01  0.00000E+00  9.000E+00
     -24     2     4     4     0     0 -1.000782570E+01 -2.421805518E+01 -3.424499665E+01  1.012008804E+02  9.155450628E+01  0.00000E+00  9.000E+00
     -11     1     5     5     0     0  2.493228963E+01  2.889607084E+01  1.935362617E+01  4.279211168E+01  1.192092896E-06  0.00000E+00  9.000E+00
      12     1     5     5     0     0 -1.136745027E+01 -4.039278789E+01  4.584437808E+01  6.214904054E+01  9.536743164E-07  0.00000E+00  9.000E+00
      13     1     6     6     0     0 -1.765938874E+01 -3.821589762E+01  1.858227136E+01  4.601749288E+01  1.215700987E-06  0.00000E+00  9.000E+00
     -14     1     6     6     0     0  7.651563044E+00  1.399784244E+01 -5.282726801E+01  5.518338749E+01  9.536743164E-07  0.00000E+00  9.000E+00
       5     1     3     3   502     0 -7.974074074E+01  3.430066566E+01  2.075401236E+02  2.250124148E+02  4.750000000E+00  0.00000E+00  9.000E+00
      -5     1     4     4     0   504  9.441418698E+01 -7.212442330E+01 -2.914939463E+01  1.224263895E+02  4.750000000E+00  0.00000E+00  9.000E+00
       2     1     1     2   504     0 -1.823045990E+01  7.353852988E+01  2.686269065E+02  2.791069328E+02  5.394796609E-06  0.00000E+00  9.000E+00
</event>
<event>
     13  10001  1.00000E+00  2.50434E+01 -1.00000E+00  1.62693E-01
      21    -1     0     0   503   504  0.000000000E+00  0.000000000E+00  1.006212251E+02  1.006212251E+02  0.000000000E+00  0.00000E+00  9.000E+00
      21    -1     0     0   511   503  0.000000000E+00  0.000000000E+00 -5.693722493E+02  5.693722493E+02  0.000000000E+00  0.00000E+00  9.000E+00
       6     2     1     2   502     0 -3.434332652E+01  2.253215783E+01 -1.896077822E+01  1.778501429E+02  1.720000000E+02  0.00000E+00  9.000E+00
      -6     2     1     2     0   504  9.974334377E+00 -2.830482401E+01 -3.882520974E+02  4.257045237E+02  1.720000000E+02  0.00000E+00  9.000E+00
      24     2     3     3     0     0  1.304577669E+01  7.095647791E+01  3.553735389E+00  1.062952150E+02  7.798095698E+01  0.00000E+00  9.000E+00
     -24     2     4     4     0     0 -4.573885938E+01 -7.468881484E+00 -1.274348620E+02  1.581483816E+02  8.138451378E+01  0.00000E+00  9.000E+00
     -11     1     5     5     0     0 -6.819298407E+00  4.142690363E+01  3.810102447E+01  5.669549577E+01  1.719260824E-06  0.00000E+00  9.000E+00
      12     1     5     5     0     0  1.986507510E+01  2.952957428E+01 -3.454728908E+01  4.959971924E+01  0.000000000E+00  0.00000E+00  9.000E+00
      13     1     6     6     0     0  4.443103623E+00  2.719437186E+01 -6.627666009E+01  7.177653310E+01  1.348699152E-06  0.00000E+00  9.000E+00
     -14     1     6     6     0     0 -5.018196300E+01 -3.466325335E+01 -6.115820196E+01  8.637184848E+01  1.168007728E-06  0.00000E+00  9.000E+00
       5     1     3     3   502     0 -4.738910322E+01 -4.842432009E+01 -2.251451361E+01  7.155492787E+01  4.750000000E+00  0.00000E+00  9.000E+00
      -5     1     4     4     0   504  5.571319376E+01 -2.083594252E+01 -2.608172353E+02  2.675561421E+02  4.750000000E+00  0.00000E+00  9.000E+00
      21     1     1     2   511   502  2.436899215E+01  5.772666180E+00 -6.153814859E+01  6.643880782E+01  6.743495762E-07  0.00000E+00  9.000E+00
</event>
<event>
     13  10001  1.00000E+00  1.58268E+02 -1.00000E+00  1.17545E-01
      21    -1     0     0   503   504  0.000000000E+00  0.000000000E+00  1.087558310E+02  1.087558310E+02  0.000000000E+00  0.00000E+00  9.000E+00
       2    -1     0     0   502     0  0.000000000E+00  0.000000000E+00 -1.397523925E+03  1.397523925E+03  0.000000000E+00  0.00000E+00  9.000E+00
       6     2     1     2   502     0  3.567348601E+01  7.156345529E+00 -6.305610376E+01  1.867722761E+02  1.720000000E+02  0.00000E+00  9.000E+00
      -6     2     1     2     0   504 -1.866640753E+02 -5.459644924E+01 -1.056004377E+03  1.087452755E+03  1.720000000E+02  0.00000E+00  9.000E+00
      24     2     3     3     0     0  6.178825221E+01  5.197107143E+01 -7.232231285E+01  1.338689132E+02  7.855945907E+01  0.00000E+00  9.000E+00
     -24     2     4     4     0     0 -1.623575430E+02 -5.749378814E+01 -5.670833114E+02  5.978962482E+02  7.893626614E+01  0.00000E+00  9.000E+00
     -11     1     5     5     0     0  8.041027987E+01  3.604642545E+01 -5.532668622E+01  1.040490274E+02  4.768371582E-06  0.00000E+00  9.000E+00
      12     1     5     5     0     0 -1.862202767E+01  1.592464598E+01 -1.699562663E+01  2.981988579E+01  1.092571186E-06  0.00000E+00  9.000E+00
      13     1     6     6     0     0 -5.682453116E+00 -2.972565112E+01 -8.431027650E+01  8.957749344E+01  1.907348633E-06  0.00000E+00  9.000E+00
     -14     1     6     6     0     0 -1.566750899E+02 -2.776813702E+01 -4.827730349E+02  5.083187548E+02  5.394796609E-06  0.00000E+00  9.000E+00
       5     1     3     3   502     0 -2.611476620E+01 -4.481472590E+01  9.266209090E+00  5.290336286E+01  4.750000000E+00  0.00000E+00  9.000E+00
      -5     1     4     4     0   504 -2.430653235E+01  2.897338899E+00 -4.889210656E+02  4.895565064E+02  4.750000000E+00  0.00000E+00  9.000E+00
       2     1     1     2   503     0  1.509905893E+02  4.744010371E+01 -1.697076130E+02  2.320547250E+02  3.303624740E-06  0.00000E+00  9.000E+00
</event>
<event>
     13  10001  1.00000E+00  1.39953E+02 -1.00000E+00  1.19746E-01
      21    -1     0     0   502   511  0.000000000E+00  0.000000000E+00  8.086697321E+02  8.086697321E+02  0.000000000E+00  0.00000E+00  9.000E+00
      21    -1     0     0   503   504  0.000000000E+00  0.000000000E+00 -1.910681531E+02  1.910681531E+02  0.000000000E+00  0.00000E+00  9.000E+00
       6     2     1     2   502     0  6.995447888E+01  3.329044316E+01  2.885557422E+01  1.908363877E+02  1.720000000E+02  0.00000E+00  9.000E+00
      -6     2     1     2     0   504  6.268437616E+01 -7.794227078E+01 -4.852887870E+00  1.990273326E+02  1.720000000E+02  0.00000E+00  9.000E+00
      24     2     3     3     0     0  4.474042868E+01  8.836973539E-01 -4.733622981E+01  1.041547922E+02  8.127124466E+01  0.00000E+00  9.000E+00
     -24     2     4     4     0     0  3.786535212E+01 -1.047507616E+02 -4.599399435E+01  1.438020460E+02  7.846702468E+01  0.00000E+00  9.000E+00
     -11     1     5     5     0     0  6.841540190E+01 -4.213591787E-01 -4.038126152E+01  7.944489312E+01  1.066240300E-06  0.00000E+00  9.000E+00
      12     1     5     5     0     0 -2.367497322E+01  1.305056533E+00 -6.954968291E+00  2.470989910E+01  4.042583694E-07  0.00000E+00  9.000E+00
      13     1     6     6     0     0  1.211560814E+00  1.607076126E+00 -3.012444801E+01  3.019160382E+01  0.000000000E+00  0.00000E+00  9.000E+00
     -14     1     6     6     0     0  3.665379130E+01 -1.063578378E+02 -1.586954633E+01  1.136104422E+02  3.277713557E-06  0.00000E+00  9.000E+00
       5     1     3     3   502     0  2.521405020E+01  3.240674581E+01  7.619180403E+01  8.668159552E+01  4.750000000E+00  0.00000E+00  9.000E+00
      -5     1     4     4     0   504  2.481902404E+01  2.680849084E+01  4.114110648E+01  5.522528658E+01  4.750000000E+00  0.00000E+00  9.000E+00
      21     1     1     2   503   511 -1.326388550E+02  4.465182762E+01  5.935988927E+02  6.098741649E+02  0.000000000E+00  0.00000E+00  9.000E+00
</event>
<event>
     13  10001  1.00000E+00  2.82278E+01 -1.00000E+00  1.58701E-01
      21    -1     0     0   512   503  0.000000000E+00  0.000000000E+00  1.022278137E+02  1.022278137E+02  0.000000000E+00  0.00000E+00  9.000E+00
      21    -1     0     0   503   504  0.000000000E+00  0.000000000E+00 -3.620869390E+02  3.620869390E+02  0.000000000E+00  0.00000E+00  9.000E+00
       6     2     1     2   502     0 -1.106717903E+01 -3.893389544E+01 -9.121640557E+01  1.988536228E+02  1.720000000E+02  0.00000E+00  9.000E+00
      -6     2     1     2     0   504  3.222560863E+01  2.024882488E+01 -1.521349540E+02  2.327607119E+02  1.720000000E+02  0.00000E+00  9.000E+00
      24     2     3     3     0     0  1.461095671E+01 -8.295233661E+01 -3.492637849E+01  1.227739313E+02  8.221323543E+01  0.00000E+00  9.000E+00
     -24     2     4     4     0     0  2.992258309E+01 -5.409438868E+01 -9.340071455E+01  1.378687169E+02  8.038983612E+01  0.00000E+00  9.000E+00
     -11     1     5     5     0     0  4.158862471E+01 -3.324302076E+01  5.099300218E+00  5.348565225E+01  1.472126130E-06  0.00000E+00  9.000E+00
      12     1     5     5     0     0 -2.697766800E+01 -4.970931585E+01 -4.002567871E+01  6.928827902E+01  1.966049969E-06  0.00000E+00  9.000E+00
      13     1     6     6     0     0  3.136540176E+01 -1.597116826E+01 -9.329966132E+01  9.971806981E+01  1.348699152E-06  0.00000E+00  9.000E+00
     -14     1     6     6     0     0 -1.442818670E+00 -3.812322042E+01 -1.010532300E-01  3.815064708E+01  1.374880072E-06  0.00000E+00  9.000E+00
       5     1     3     3   502     0 -2.567813574E+01  4.401844117E+01 -5.629002708E+01  7.607969155E+01  4.750000000E+00  0.00000E+00  9.000E+00
      -5     1     4     4     0   504  2.303025548E+00  7.434321356E+01 -5.873423947E+01  9.489199500E+01  4.750000000E+00  0.00000E+00  9.000E+00
      21     1     1     2   512   502 -2.115842960E+01  1.868507056E+01 -1.650776569E+01  3.270041794E+01  8.596304120E-07  0.00000E+00  9.000E+00
</event>
<event>
     13  10001  1.00000E+00  6.80303E+00 -1.00000E+00  2.25087E-01
      -1    -1     0     0     0   512  0.000000000E+00  0.000000000E+00  1.599620307E+02  1.599620307E+02  0.000000000E+00  0.00000E+00  9.000E+00
       1    -1     0     0   511     0  0.000000000E+00  0.000000000E+00 -2.284148599E+02  2.284148599E+02  0.000000000E+00  0.00000E+00  9.000E+00
       6     2     1     2   502     0  1.740555953E+01  1.700863239E+01  3.921391586E+01  1.780841887E+02  1.720000000E+02  0.00000E+00  9.000E+00
      -6     2     1     2     0   512 -1.652185817E+01 -1.026324687E+01 -9.947209904E+01  1.996421912E+02  1.720000000E+02  0.00000E+00  9.000E+00
      24     2     3     3     0     0  7.514996032E+01  1.315760663E+01  4.415301936E+01  1.198072339E+02  8.113966370E+01  0.00000E+00  9.000E+00
     -24     2     4     4     0     0 -4.264086485E+01  4.150585528E+01 -7.600151943E+01  1.369072484E+02  9.708956858E+01  0.00000E+00  9.000E+00
     -11     1     5     5     0     0  4.809264565E+01  4.236500381E+01  5.517044153E+00  6.432832883E+01  4.256623047E-07  0.00000E+00  9.000E+00
      12     1     5     5     0     0  2.705731467E+01 -2.920739718E+01  3.863597521E+01  5.547890506E+01  4.768371582E-07  0.00000E+00  9.000E+00
      13     1     6     6     0     0  2.044397292E+01  7.576290325E+00 -5.954461691E+01  6.341070578E+01  9.536743164E-07  0.00000E+00  9.000E+00
     -14     1     6     6     0     0 -6.308483777E+01  3.392956496E+01 -1.645690252E+01  7.349654261E+01  1.192092896E-06  0.00000E+00  9.000E+00
       5     1     3     3   502     0 -5.774440079E+01  3.851025758E+00 -4.939103498E+00  5.827695484E+01  4.750000000E+00  0.00000E+00  9.000E+00
      -5     1     4     4     0   512  2.611900668E+01 -5.176910215E+01 -2.347057960E+01  6.273494285E+01  4.750000000E+00  0.00000E+00  9.000E+00
      21     1     1     2   511   502 -8.837013619E-01 -6.745385519E+00 -8.194645993E+00  1.065051064E+01  1.192092896E-07  0.00000E+00  9.000E+00
</event>
<event>
     13  10001  1.00000E+00  1.70298E+01 -1.00000E+00  1.77097E-01
      21    -1     0     0   503   512  0.000000000E+00  0.000000000E+00  3.334487092E+02  3.334487092E+02  0.000000000E+00  0.00000E+00  9.000E+00
      21    -1     0     0   502   503  0.000000000E+00  0.000000000E+00 -1.734395458E+02  1.734395458E+02  0.000000000E+00  0.00000E+00  9.000E+00
       6     2     1     2   502     0 -9.659296310E+01 -4.593003026E+00  1.358047957E+02  2.395375518E+02  1.720000000E+02  0.00000E+00  9.000E+00
      -6     2     1     2     0   504  1.115670288E+02 -3.518260293E+00 -3.298334357E+01  2.076812005E+02  1.720000000E+02  0.00000E+00  9.000E+00
      24     2     3     3     0     0 -8.422780937E+01 -6.297229350E+01  6.734279236E+01  1.485944543E+02  8.053214609E+01  0.00000E+00  9.000E+00
     -24     2     4     4     0     0  6.789043110E+01 -6.879067127E+01 -2.167506278E+01  1.281917512E+02  8.137597712E+01  0.00000E+00  9.000E+00
     -11     1     5     5     0     0  7.973214341E+00 -2.110946256E+01  3.619438857E+01  4.265226044E+01  9.536743164E-07  0.00000E+00  9.000E+00
      12     1     5     5     0     0 -9.220102371E+01 -4.186283093E+01  3.114840380E+01  1.059421939E+02  2.523185073E-06  0.00000E+00  9.000E+00
      13     1     6     6     0     0  6.091895026E+01 -1.767528648E+01  1.464537355E+01  6.510008617E+01  1.369610464E-06  0.00000E+00  9.000E+00
     -14     1     6     6     0     0  6.971480841E+00 -5.111538479E+01 -3.632043633E+01  6.309166508E+01  8.259061849E-07  0.00000E+00  9.000E+00
       5     1     3     3   502     0 -1.236515373E+01  5.837929047E+01  6.846200329E+01  9.094309747E+01  4.750000000E+00  0.00000E+00  9.000E+00
      -5     1     4     4     0   504  4.367659771E+01  6.527241098E+01 -1.130828079E+01  7.948944922E+01  4.750000000E+00  0.00000E+00  9.000E+00
      21     1     1     2   504   512 -1.497406572E+01  8.111263319E+00  5.718771131E+01  5.966950278E+01  9.536743164E-07  0.00000E+00  9.000E+00
</event>
<event>
     13  10001  1.00000E+00  1.36591E+02 -1.00000E+00  1.20191E-01
      21    -1     0     0   503   504  0.000000000E+00  0.000000000E+00  9.504697917E+02  9.504697917E+02  0.000000000E+00  0.00000E+00  9.000E+00
      21    -1     0     0   502   511  0.000000000E+00  0.000000000E+00 -2.393429935E+02  2.393429935E+02  0.000000000E+00  0.00000E+00  9.000E+00
       6     2     1     2   502     0 -1.461861808E+01  1.219466045E+02 -9.357897379E+01  2.311400067E+02  1.720000000E+02  0.00000E+00  9.000E+00
      -6     2     1     2     0   504 -8.776326042E+01 -2.123626427E+02  7.640121903E+02  8.161488276E+02  1.720000000E+02  0.00000E+00  9.000E+00
      24     2     3     3     0     0  4.874730978E+01  3.391117266E+01 -6.096283866E+01  1.177739939E+02  8.141239527E+01  0.00000E+00  9.000E+00
     -24     2     4     4     0     0 -2.665836745E+01 -2.483186636E+01  2.828356365E+02  2.960959087E+02  7.968374834E+01  0.00000E+00  9.000E+00
     -11     1     5     5     0     0  5.970924854E+01  5.206143942E+01 -4.398361479E+01  9.060985712E+01  3.198720900E-06  0.00000E+00  9.000E+00
      12     1     5     5     0     0 -1.096193876E+01 -1.815026676E+01 -1.697922387E+01  2.716413680E+01  7.907449699E-07  0.00000E+00  9.000E+00
      13     1     6     6     0     0 -3.150006938E+01 -5.147102559E+01  1.858233172E+02  1.953761144E+02  2.697398305E-06  0.00000E+00  9.000E+00
     -14     1     6     6     0     0  4.841701926E+00  2.663915923E+01  9.701231925E+01  1.007197943E+02  2.336015456E-06  0.00000E+00  9.000E+00
       5     1     3     3   502     0 -6.336592786E+01  8.803543187E+01 -3.261613513E+01  1.133660128E+02  4.750000000E+00  0.00000E+00  9.000E+00
      -5     1     4     4     0   504 -6.110489297E+01 -1.875307763E+02  4.811765538E+02  5.200529189E+02  4.750000000E+00  0.00000E+00  9.000E+00
      21     1     1     2   503   511  1.023818785E+02  9.041603815E+01  4.069358162E+01  1.425239509E+02  3.198720900E-06  0.00000E+00  9.000E+00
</event>
<event>
     13  10001  1.00000E+00  9.66295E+01 -1.00000E+00  1.26916E-01
      21    -1     0     0   512   504  0.000000000E+00  0.000000000E+00  6.883691167E+02  6.883691167E+02  0.000000000E+00  0.00000E+00  9.000E+00
      21    -1     0     0   502   503  0.000000000E+00  0.000000000E+00 -1.950357279E+02  1.950357279E+02  0.000000000E+00  0.00000E+00  9.000E+00
       6     2     1     2   502     0 -9.609545673E+01 -1.155656021E+02 -2.104554032E+01  2.293832164E+02  1.720000000E+02  0.00000E+00  9.000E+00
      -6     2     1     2     0   504  1.769904290E+02  1.684170157E+02  4.410088386E+02  5.326938135E+02  1.720000000E+02  0.00000E+00  9.000E+00
      24     2     3     3     0     0 -3.327827785E+01 -1.216724085E+02 -4.812837705E+01  1.605403984E+02  8.686345643E+01  0.00000E+00  9.000E+00
     -24     2     4     4     0     0  1.369486860E+02  1.941544289E+02  3.649139552E+02  4.428119498E+02  8.043222832E+01  0.00000E+00  9.000E+00
     -11     1     5     5     0     0 -2.885172760E-01 -2.892746465E+01 -5.470532508E+01  6.188339071E+01  1.168007728E-06  0.00000E+00  9.000E+00
      12     1     5     5     0     0 -3.298976058E+01 -9.274494390E+01  6.576948036E+00  9.865700769E+01  2.250815342E-06  0.00000E+00  9.000E+00
      13     1     6     6     0     0  1.132901833E+02  1.104400659E+02  2.778319212E+02  3.197221453E+02  5.394796609E-06  0.00000E+00  9.000E+00
     -14     1     6     6     0     0  2.365850267E+01  8.371436299E+01  8.708203403E+01  1.230898045E+02  2.336015456E-06  0.00000E+00  9.000E+00
       5     1     3     3   502     0 -6.281717888E+01  6.106806402E+00  2.708283672E+01  6.884281801E+01  4.750000000E+00  0.00000E+00  9.000E+00
      -5     1     4     4     0   504  4.004174301E+01 -2.573741322E+01  7.609488344E+01  8.988186362E+01  4.750000000E+00  0.00000E+00  9.000E+00
      21     1     1     2   512   503 -8.089497230E+01 -5.285141357E+01  7.337009050E+01  1.213278148E+02  9.536743164E-07  0.00000E+00  9.000E+00
</event>
<event>
     13  10001  1.00000E+00  3.81706E+01 -1.00000E+00  1.49478E-01
      21    -1     0     0   503   504  0.000000000E+00  0.000000000E+00  1.120712219E+02  1.120712219E+02  0.000000000E+00  0.00000E+00  9.000E+00
      21    -1     0     0   511   503  0.000000000E+00  0.000000000E+00 -6.049053645E+02  6.049053645E+02  0.000000000E+00  0.00000E+00  9.000E+00
       6     2     1     2   502     0  5.999436100E+01  4.693420785E+01 -3.465404684E+02  3.943050081E+02  1.720000000E+02  0.00000E+00  9.000E+00
      -6     2     1     2     0   504 -9.565971635E+01 -6.053470786E+01 -4.003716414E+01  2.097670296E+02  1.720000000E+02  0.00000E+00  9.000E+00
      24     2     3     3     0     0 -3.158379134E+01  1.034878532E+01 -1.636104932E+02  1.864324764E+02  8.297012440E+01  0.00000E+00  9.000E+00
     -24     2     4     4     0     0 -3.679610042E+00  4.564900764E-02  2.250462672E+01  8.302178234E+01  7.982866970E+01  0.00000E+00  9.000E+00
     -11     1     5     5     0     0 -3.035596260E+01  4.548124265E+00 -1.727951668E+02  1.755002552E+02  0.000000000E+00  0.00000E+00  9.000E+00
      12     1     5     5     0     0 -1.227828737E+00  5.800661055E+00  9.184673594E+00  1.093222123E+01  0.000000000E+00  0.00000E+00  9.000E+00
      13     1     6     6     0     0 -2.558670271E+01 -2.765887873E+01 -5.328234011E+00  3.805368584E+01  1.071226642E-06  0.00000E+00  9.000E+00
     -14     1     6     6     0     0  2.190709267E+01  2.770452774E+01  2.783286073E+01  4.496809650E+01  1.118282261E-06  0.00000E+00  9.000E+00
       5     1     3     3   502     0  9.157815234E+01  3.658542253E+01 -1.829299752E+02  2.078725318E+02  4.750000000E+00  0.00000E+00  9.000E+00
      -5     1     4     4     0   504 -9.198010631E+01 -6.058035686E+01 -6.254179086E+01  1.267452472E+02  4.750000000E+00  0.00000E+00  9.000E+00
      21     1     1     2   511   502  3.566535535E+01  1.360050001E+01 -1.062565101E+02  1.129045486E+02  1.907348633E-06  0.00000E+00  9.000E+00
</event>
<event>
     13  10001  1.00000E+00  2.53080E+01 -1.00000E+00  1.62334E-01
      -2    -1     0     0     0   512  0.000000000E+00  0.000000000E+00  1.366739941E+02  1.366739941E+02  0.000000000E+00  0.00000E+00  9.000E+00
       2    -1     0     0   513     0  0.000000000E+00  0.000000000E+00 -5.294953671E+02  5.294953671E+02  0.000000000E+00  0.00000E+00  9.000E+00
       6     2     1     2   502     0 -2.885099979E+01 -9.690311037E+01  3.550542319E+00  1.995474864E+02  1.720000000E+02  0.00000E+00  9.000E+00
      -6     2     1     2     0   512  5.093381407E+01  1.092662117E+02 -2.949824219E+02  3.621215095E+02  1.720000000E+02  0.00000E+00  9.000E+00
      24     2     3     3     0     0 -2.897414148E+01 -1.091483587E+02 -4.808913152E+01  1.462635331E+02  7.954615927E+01  0.00000E+00  9.000E+00
     -24     2     4     4     0     0 -4.220041136E+00  1.109811866E+02 -2.675890120E+02  3.003327542E+02  7.912806940E+01  0.00000E+00  9.000E+00
     -11     1     5     5     0     0  2.196600542E+01 -9.986120550E+00 -1.989193085E+01  3.127166306E+01  9.233911863E-07  0.00000E+00  9.000E+00
      12     1     5     5     0     0 -5.094014690E+01 -9.916223816E+01 -2.819720067E+01  1.149918700E+02  2.821006671E-06  0.00000E+00  9.000E+00
      13     1     6     6     0     0 -1.893880709E+01  2.499063467E+01 -1.537191800E+02  1.568846599E+02  3.814697266E-06  0.00000E+00  9.000E+00
     -14     1     6     6     0     0  1.471876595E+01  8.599055196E+01 -1.138698320E+02  1.434480942E+02  3.568322551E-06  0.00000E+00  9.000E+00
       5     1     3     3   502     0  1.231416922E-01  1.224524834E+01  5.163967384E+01  5.328395335E+01  4.750000000E+00  0.00000E+00  9.000E+00
      -5     1     4     4     0   512  5.515385520E+01 -1.714974887E+00 -2.739340992E+01  6.178875536E+01  4.750000000E+00  0.00000E+00  9.000E+00
      21     1     1     2   513   502 -2.208281428E+01 -1.236310137E+01 -1.013894935E+02  1.045003653E+02  0.000000000E+00  0.00000E+00  9.000E+00
</event>
<event>
     13  10001  1.00000E+00  1.05684E+02 -1.00000E+00  1.25103E-01
      21    -1     0     0   502   503  0.000000000E+00  0.000000000E+00  3.301285832E+02  3.301285832E+02  0.000000000E+00  0.00000E+00  9.000E+00
      21    -1     0     0   503   511  0.000000000E+00  0.000000000E+00 -4.782937091E+02  4.782937091E+02  0.000000000E+00  0.00000E+00  9.000E+00
       6     2     1     2   502     0  1.323422331E+02 -9.344422315E+01 -1.161030287E+02  2.632683095E+02  1.720000000E+02  0.00000E+00  9.000E+00
      -6     2     1     2     0   504 -4.194682417E+01  3.869286450E+01  2.121750713E+02  2.790321392E+02  1.720000000E+02  0.00000E+00  9.000E+00
      24     2     3     3     0     0  5.031958296E+01 -1.148464812E+02 -9.407952747E+01  1.755564580E+02  7.904010221E+01  0.00000E+00  9.000E+00
     -24     2     4     4     0     0 -3.402715314E+01  3.050436260E+01  2.353947093E+02  2.527360018E+02  7.985270293E+01  0.00000E+00  9.000E+00
     -11     1     5     5     0     0  6.275480785E+01 -4.612768803E+01 -5.678521958E+01  9.638719144E+01  0.000000000E+00  0.00000E+00  9.000E+00
      12     1     5     5     0     0 -1.243522489E+01 -6.871879322E+01 -3.729430789E+01  7.916926652E+01  9.536743164E-07  0.00000E+00  9.000E+00
      13     1     6     6     0     0 -5.213634464E+00  1.733944750E+01  3.195872218E+00  1.838619110E+01  1.632340424E-07  0.00000E+00  9.000E+00
     -14     1     6     6     0     0 -2.881351867E+01  1.316491510E+01  2.321988370E+02  2.343498107E+02  3.814697266E-06  0.00000E+00  9.000E+00
       5     1     3     3   502     0  8.202265019E+01  2.140225810E+01 -2.202350125E+01  8.771185155E+01  4.750000000E+00  0.00000E+00  9.000E+00
      -5     1     4     4     0   504 -7.919671032E+00  8.188501901E+00 -2.321963799E+01  2.629613738E+01  4.750000000E+00  0.00000E+00  9.000E+00
      21     1     1     2   504   511 -9.039540897E+01  5.475135865E+01 -2.442371684E+02  2.661218437E+02  4.672030912E-06  0.00000E+00  9.000E+00
</event>
<event>
     13  10001  1.00000E+00  1.82506E+01 -1.00000E+00  1.74320E-01
      21    -1     0     0   503   504  0.000000000E+00  0.000000000E+00  4.298777118E+02  4.298777118E+02  0.000000000E+00  0.00000E+00  9.000E+00
      21    -1     0     0   502   512  0.000000000E+00  0.000000000E+00 -3.821121067E+02  3.821121067E+02  0.000000000E+00  0.00000E+00  9.000E+00
       6     2     1     2   502     0 -1.371155479E+02 -4.140947005E+01 -7.236324742E+01  2.352357483E+02  1.720000000E+02  0.00000E+00  9.000E+00
      -6     2     1     2     0   504  1.362719613E+02  2.317838497E+01  3.130324606E+02  3.829890421E+02  1.720000000E+02  0.00000E+00  9.000E+00
      24     2     3     3     0     0 -7.867706183E+01  4.277433736E+01 -4.988935191E+01  1.302138050E+02  8.029298592E+01  0.00000E+00  9.000E+00
     -24     2     4     4     0     0  1.628589718E+02  2.611006794E+01  2.218110727E+02  2.878083298E+02  8.017918901E+01  0.00000E+00  9.000E+00
     -11     1     5     5     0     0 -8.440869727E+01  1.800212657E+01 -5.745898005E+01  1.036843244E+02  2.431401974E-06  0.00000E+00  9.000E+00
      12     1     5     5     0     0  5.731635433E+00  2.477221079E+01  7.569628139E+00  2.652948063E+01  4.842304232E-07  0.00000E+00  9.000E+00
      13     1     6     6     0     0  8.048267964E+00  1.986672880E+01  6.221428323E+00  2.231967072E+01  5.900558792E-07  0.00000E+00  9.000E+00
     -14     1     6     6     0     0  1.548107038E+02  6.243339139E+00  2.155896444E+02  2.654886590E+02  2.697398305E-06  0.00000E+00  9.000E+00
       5     1     3     3   502     0 -5.843848608E+01 -8.418380741E+01 -2.247389551E+01  1.050219433E+02  4.750000000E+00  0.00000E+00  9.000E+00
      -5     1     4     4     0   504 -2.658701050E+01 -2.931682971E+00  9.122138788E+01  9.518071232E+01  4.750000000E+00  0.00000E+00  9.000E+00
      21     1     1     2   503   512  8.435866207E-01  1.823108508E+01 -1.929036081E+02  1.937650281E+02  3.814697266E-06  0.00000E+00  9.000E+00
</event>
<event>
     13  10001  1.00000E+00  4.22578E+02 -1.00000E+00  1.02542E-01
      21    -1     0     0   502   503  0.000000000E+00  0.000000000E+00  2.262920799E+02  2.262920799E+02  0.000000000E+00  0.00000E+00  9.000E+00
      21    -1     0     0   503   511  0.000000000E+00  0.000000000E+00 -1.126648829E+03  1.126648829E+03  0.000000000E+00  0.00000E+00  9.000E+00
       6     2     1     2   502     0 -1.423723957E+02  4.482065943E+01 -1.441162664E+02  2.695037826E+02  1.720000000E+02  0.00000E+00  9.000E+00
      -6     2     1     2     0   504 -2.668951393E+02 -1.500444071E+02 -3.039121218E+02  4.644275156E+02  1.720000000E+02  0.00000E+00  9.000E+00
      24     2     3     3     0     0 -2.064896322E+01  5.866722000E+01 -4.179811454E+01  1.098169392E+02  8.027736518E+01  0.00000E+00  9.000E+00
     -24     2     4     4     0     0 -2.829449022E+02 -1.560909998E+02 -2.792499315E+02  4.340146515E+02  7.723972759E+01  0.00000E+00  9.000E+00
     -11     1     5     5     0     0 -9.890931606E+00  1.416644873E+01  2.405254499E+01  2.961492391E+01  5.840038640E-07  0.00000E+00  9.000E+00
      12     1     5     5     0     0 -1.075803161E+01  4.450077128E+01 -6.585065953E+01  8.020201525E+01  3.162979880E-06  0.00000E+00  9.000E+00
      13     1     6     6     0     0 -2.308594447E+02 -1.002617071E+02 -2.416034688E+02  3.488849800E+02  5.394796609E-06  0.00000E+00  9.000E+00
     -14     1     6     6     0     0 -5.208545752E+01 -5.582929274E+01 -3.764646270E+01  8.512967149E+01  1.846782373E-06  0.00000E+00  9.000E+00
       5     1     3     3   502     0 -1.217234325E+02 -1.384656058E+01 -1.023181519E+02  1.596868434E+02  4.750000000E+00  0.00000E+00  9.000E+00
      -5     1     4     4     0   504  1.604976293E+01  6.046592778E+00 -2.466219032E+01  3.041286415E+01  4.750000000E+00  0.00000E+00  9.000E+00
      21     1     1     2   504   511  4.092675350E+02  1.052237476E+02 -4.523283606E+02  6.190096106E+02  0.000000000E+00  0.00000E+00  9.000E+00
</event>
<event>
     13  10001  1.00000E+00  9.46077E+00 -1.00000E+00  2.04992E-01
      21    -1     0     0   502   512  0.000000000E+00  0.000000000E+00  2.274309836E+03  2.274309836E+03  0.000000000E+00  0.00000E+00  9.000E+00
      21    -1     0     0   503   504  0.000000000E+00  0.000000000E+00 -2.079413385E+01  2.079413385E+01  0.000000000E+00  0.00000E+00  9.000E+00
       6     2     1     2   502     0 -2.083078833E+01  8.622443752E+01  1.222010828E+03  1.237240090E+03  1.720000000E+02  0.00000E+00  9.000E+00
      -6     2     1     2     0   504  1.253748345E+01 -9.077716559E+01  7.111975731E+02  7.374168904E+02  1.720000000E+02  0.00000E+00  9.000E+00
      24     2     3     3     0     0  1.073452668E+01  1.169960572E+02  1.048171537E+03  1.057835733E+03  8.092934380E+01  0.00000E+00  9.000E+00
     -24     2     4     4     0     0  9.227702378E+00  6.487804178E+00  4.762238931E+02  4.830419274E+02  8.008161596E+01  0.00000E+00  9.000E+00
     -11     1     5     5     0     0  4.532527045E+01  5.309886955E+01  4.862830970E+02  4.912688882E+02  1.321449896E-05  0.00000E+00  9.000E+00
      12     1     5     5     0     0 -3.459074377E+01  6.389718769E+01  5.618884400E+02  5.665668444E+02  1.321449896E-05  0.00000E+00  9.000E+00
      13     1     6     6     0     0 -3.042589258E+01  1.389204358E-01  3.301282242E+02  3.315273724E+02  3.814697266E-06  0.00000E+00  9.000E+00
     -14     1     6     6     0     0  3.965359496E+01  6.348883742E+00  1.460956689E+02  1.515145550E+02  2.697398305E-06  0.00000E+00  9.000E+00
       5     1     3     3   502     0 -3.156531501E+01 -3.077161972E+01  1.738392910E+02  1.794043569E+02  4.750000000E+00  0.00000E+00  9.000E+00
      -5     1     4     4     0   504  3.309781077E+00 -9.726496977E+01  2.349736800E+02  2.543749630E+02  4.750000000E+00  0.00000E+00  9.000E+00
      21     1     1     2   503   512  8.293304872E+00  4.552728068E+00  3.203073013E+02  3.204469901E+02  3.814697266E-06  0.00000E+00  9.000E+00
</event>
<event>
     13  10001  1.00000E+00  1.01019E+02 -1.00000E+00  1.26011E-01
      21    -1     0     0   503   504  0.000000000E+00  0.000000000E+00  1.712139172E+02  1.712139172E+02  0.000000000E+00  0.00000E+00  9.000E+00
       2    -1     0     0   502     0  0.000000000E+00  0.000000000E+00 -9.279709999E+02  9.279709999E+02  0.000000000E+00  0.00000E+00  9.000E+00
       6     2     1     2   502     0 -1.305834479E+02 -7.087118608E+01  4.095480801E+01  2.309460071E+02  1.720000000E+02  0.00000E+00  9.000E+00
      -6     2     1     2     0   504  1.009067242E+02 -2.568990806E+01 -3.052194093E+02  3.654928538E+02  1.720000000E+02  0.00000E+00  9.000E+00
      24     2     3     3     0     0 -1.066780754E+02 -3.893250512E+01 -3.712303788E+01  1.431379283E+02  7.883143319E+01  0.00000E+00  9.000E+00
     -24     2     4     4     0     0  5.273087479E+01  4.930621270E+01 -1.949115662E+02  2.235924897E+02  8.241016334E+01  0.00000E+00  9.000E+00
     -11     1     5     5     0     0 -1.062727845E+01  1.048442095E+01 -3.163566419E+01  3.498110031E+01  3.371747881E-07  0.00000E+00  9.000E+00
      12     1     5     5     0     0 -9.605079693E+01 -4.941692607E+01 -5.487373685E+00  1.081568280E+02  5.900558792E-07  0.00000E+00  9.000E+00
      13     1     6     6     0     0  1.972844509E+01  4.146331978E+01 -1.813293654E+02  1.870528192E+02  3.814697266E-06  0.00000E+00  9.000E+00
     -14     1     6     6     0     0  3.300242970E+01  7.842892925E+00 -1.358220083E+01  3.653967043E+01  1.327458468E-06  0.00000E+00  9.000E+00
       5     1     3     3   502     0 -2.390537252E+01 -3.193868096E+01  7.807784589E+01  8.780807876E+01  4.750000000E+00  0.00000E+00  9.000E+00
      -5     1     4     4     0   504  4.817584943E+01 -7.499612076E+01 -1.103078431E+02  1.419003641E+02  4.750000000E+00  0.00000E+00  9.000E+00
       2     1     1     2   503     0  2.967672368E+01  9.656109414E+01 -4.924924814E+02  5.027460563E+02  7.629394531E-06  0.00000E+00  9.000E+00
</event>
<event>
     13  10001  1.00000E+00  3.35417E+01 -1.00000E+00  1.53291E-01
      21    -1     0     0   503   511  0.000000000E+00  0.000000000E+00  1.046180915E+02  1.046180915E+02  0.000000000E+00  0.00000E+00  9.000E+00
      21    -1     0     0   502   503  0.000000000E+00  0.000000000E+00 -6.404637541E+02  6.404637541E+02  0.000000000E+00  0.00000E+00  9.000E+00
       6     2     1     2   502     0 -1.782972592E+02 -1.112813975E+01 -2.499082439E+02  3.520680027E+02  1.720000000E+02  0.00000E+00  9.000E+00
      -6     2     1     2     0   504  1.447574353E+02  1.148043579E+01 -2.794757748E+02  3.588554363E+02  1.720000000E+02  0.00000E+00  9.000E+00
      24     2     3     3     0     0 -1.399799517E+02 -2.775838394E+01 -9.082395810E+01  1.875227093E+02  8.093738559E+01  0.00000E+00  9.000E+00
     -24     2     4     4     0     0  1.639110580E+02 -1.958714613E+01 -2.561464680E+02  3.152793538E+02  8.086758703E+01  0.00000E+00  9.000E+00
     -11     1     5     5     0     0 -7.875631780E+01 -3.658684308E+01 -9.083359991E+01  1.256658170E+02  3.015782986E-06  0.00000E+00  9.000E+00
      12     1     5     5     0     0 -6.122363389E+01  8.828459144E+00  9.641806344E-03  6.185689234E+01  1.317817247E-06  0.00000E+00  9.000E+00
      13     1     6     6     0     0  3.448442939E+01 -3.695723750E+01 -4.894863003E+01  7.036321238E+01  1.507891493E-06  0.00000E+00  9.000E+00
     -14     1     6     6     0     0  1.294266286E+02  1.737009137E+01 -2.071978380E+02  2.449161414E+02  5.394796609E-06  0.00000E+00  9.000E+00
       5     1     3     3   502     0 -3.831730750E+01  1.663024419E+01 -1.590842858E+02  1.645452934E+02  4.750000000E+00  0.00000E+00  9.000E+00
      -5     1     4     4     0   504 -1.915362273E+01  3.106758192E+01 -2.332930674E+01  4.357608247E+01  4.750000000E+00  0.00000E+00  9.000E+00
      21     1     1     2   504   511  3.353982391E+01 -3.522960386E-01 -6.461643854E+00  3.415840661E+01  7.300048300E-07  0.00000E+00  9.000E+00
</event>
<event>
     13  10001  1.00000E+00  4.87650E+01 -1.00000E+00  1.42764E-01
      21    -1     0     0   503   504  0.000000000E+00  0.000000000E+00  1.398918295E+02  1.398918295E+02  0.000000000E+00  0.00000E+00  9.000E+00
       2    -1     0     0   502     0  0.000000000E+00  0.000000000E+00 -6.093479045E+02  6.093479045E+02  0.000000000E+00  0.00000E+00  9.000E+00
       6     2     1     2   502     0 -6.533250705E+01 -8.090213212E+01 -4.165327173E+02  4.624899956E+02  1.720000000E+02  0.00000E+00  9.000E+00
      -6     2     1     2     0   504  2.537042874E+01  1.088495888E+02  1.208995745E+01  2.054800689E+02  1.720000000E+02  0.00000E+00  9.000E+00
      24     2     3     3     0     0 -8.874108150E+01 -3.642541580E+01 -3.797098109E+02  4.000029683E+02  8.136979563E+01  0.00000E+00  9.000E+00
     -24     2     4     4     0     0 -2.795399621E+01  1.203124435E+02 -9.585879974E+00  1.465963210E+02  7.837143791E+01  0.00000E+00  9.000E+00
     -11     1     5     5     0     0 -1.248228313E+01 -4.706227101E+01 -1.393063669E+02  1.475700803E+02  3.303624740E-06  0.00000E+00  9.000E+00
      12     1     5     5     0     0 -7.625879837E+01  1.063685521E+01 -2.404034440E+02  2.524328880E+02  0.000000000E+00  0.00000E+00  9.000E+00
      13     1     6     6     0     0  3.193511442E+00 -9.981674794E+00 -7.005799318E+00  1.260609262E+01  3.953724850E-07  0.00000E+00  9.000E+00
     -14     1     6     6     0     0 -3.114750765E+01  1.302941183E+02 -2.580080656E+00  1.339902284E+02  2.992574645E-06  0.00000E+00  9.000E+00
       5     1     3     3   502     0  2.340857445E+01 -4.447671632E+01 -3.682290635E+01  6.248702733E+01  4.750000000E+00  0.00000E+00  9.000E+00
      -5     1     4     4     0   504  5.332442495E+01 -1.146285470E+01  2.167583742E+01  5.888374786E+01  4.750000000E+00  0.00000E+00  9.000E+00
       2     1     1     2   503     0  3.996207831E+01 -2.794745665E+01 -6.501331514E+01  8.126966950E+01  1.348699152E-06  0.00000E+00  9.000E+00
</event>
<event>
     13  10001  1.00000E+00  2.27354E+01 -1.00000E+00  1.66072E-01
       1    -1     0     0   502     0  0.000000000E+00  0.000000000E+00  1.891242469E+02  1.891242469E+02  0.000000000E+00  0.00000E+00  9.000E+00
      21    -1     0     0   503   504  0.000000000E+00  0.000000000E+00 -2.694377650E+02  2.694377650E+02  0.000000000E+00  0.00000E+00  9.000E+00
       6     2     1     2   502     0 -1.306909151E+01  8.006522879E+01 -6.399527303E+01  2.006505345E+02  1.720000000E+02  0.00000E+00  9.000E+00
      -6     2     1     2     0   504 -7.522000288E+00 -7.042649848E+01 -7.067936337E+01  1.989875488E+02  1.720000000E+02  0.00000E+00  9.000E+00
      24     2     3     3     0     0  3.793811056E+01  4.959650901E-01 -5.105694891E+01  1.051363202E+02  8.370954299E+01  0.00000E+00  9.000E+00
     -24     2     4     4     0     0 -4.269114514E+01  1.192277917E+01 -5.870252193E+01  1.085205410E+02  7.978743757E+01  0.00000E+00  9.000E+00
     -11     1     5     5     0     0 -4.287197922E+00  2.783501396E+01  6.286260228E+00  2.885628417E+01  2.384185791E-07  0.00000E+00  9.000E+00
      12     1     5     5     0     0  4.222530848E+01 -2.733904887E+01 -5.734320914E+01  7.628003608E+01  1.168007728E-06  0.00000E+00  9.000E+00
      13     1     6     6     0     0  1.578816340E+01  1.378290080E+01 -4.316480070E+01  4.798368970E+01  4.768371582E-07  0.00000E+00  9.000E+00
     -14     1     6     6     0     0 -5.847930854E+01 -1.860121632E+00 -1.553772123E+01  6.053685127E+01  1.283923342E-06  0.00000E+00  9.000E+00
       5     1     3     3   502     0 -5.100720206E+01  7.956926370E+01 -1.293832411E+01  9.551421423E+01  4.750000000E+00  0.00000E+00  9.000E+00
      -5     1     4     4     0   504  3.516914486E+01 -8.234927764E+01 -1.197684144E+01  9.046700785E+01  4.750000000E+00  0.00000E+00  9.000E+00
       1     1     1     2   503     0  2.059109179E+01 -9.638730313E+00  5.436111833E+01  5.892392867E+01  6.743495762E-07  0.00000E+00  9.000E+00
</event>
<event>
     13  10001  1.00000E+00  6.00035E+00 -1.00000E+00  2.33871E-01
      21    -1     0     0   502   503  0.000000000E+00  0.000000000E+00  3.538509424E+02  3.538509424E+02  0.000000000E+00  0.00000E+00  9.000E+00
      21    -1     0     0   503   511  0.000000000E+00  0.000000000E+00 -1.374479123E+02  1.374479123E+02  0.000000000E+00  0.00000E+00  9.000E+00
       6     2     1     2   502     0  5.696103353E+00  9.748916443E+01  1.274884802E+02  2.353165854E+02  1.720000000E+02  0.00000E+00  9.000E+00
      -6     2     1     2     0   504 -3.779480783E+00 -1.031751768E+02  1.136264527E+02  2.305523202E+02  1.720000000E+02  0.00000E+00  9.000E+00
      24     2     3     3     0     0 -5.672181892E+01  5.210894010E+01  1.053564398E+02  1.548942533E+02  8.342388099E+01  0.00000E+00  9.000E+00
     -24     2     4     4     0     0 -2.508902206E+01 -2.405530298E+01  1.199483690E+02  1.482323341E+02  7.985672808E+01  0.00000E+00  9.000E+00
     -11     1     5     5     0     0 -4.086797880E+01 -1.241373540E+01  2.123728331E+01  4.770025912E+01  1.390207266E-06  0.00000E+00  9.000E+00
      12     1     5     5     0     0 -1.585384012E+01  6.452267550E+01  8.411915652E+01  1.071939942E+02  1.348699152E-06  0.00000E+00  9.000E+00
      13     1     6     6     0     0 -2.438588581E+01 -5.262168055E+01  7.249824437E+01  9.284238325E+01  9.536743164E-07  0.00000E+00  9.000E+00
     -14     1     6     6     0     0 -7.031362447E-01  2.856637758E+01  4.745012459E+01  5.538995082E+01  1.507891493E-06  0.00000E+00  9.000E+00
       5     1     3     3   502     0  6.241792227E+01  4.538022433E+01  2.213204032E+01  8.042233203E+01  4.750000000E+00  0.00000E+00  9.000E+00
      -5     1     4     4     0   504  2.130954128E+01 -7.911987385E+01 -6.321916266E+00  8.231998611E+01  4.750000000E+00  0.00000E+00  9.000E+00
      21     1     1     2   504   511 -1.916622570E+00  5.686012398E+00 -2.471190276E+01  2.542994921E+01  5.840038640E-07  0.00000E+00  9.000E+00
</event>
<event>
     13  10001  1.00000E+00  3.99644E+01 -1.00000E+00  1.48170E-01
      21    -1     0     0   503   512  0.000000000E+00  0.000000000E+00  2.193188567E+02  2.193188567E+02  0.000000000E+00  0.00000E+00  9.000E+00
      21    -1     0     0   502   503  0.000000000E+00  0.000000000E+00 -4.714956659E+02  4.714956659E+02  0.000000000E+00  0.00000E+00  9.000E+00
       6     2     1     2   502     0 -3.379533487E+01  4.543602270E+01 -3.854286447E+02  4.258471521E+02  1.720000000E+02  0.00000E+00  9.000E+00
      -6     2     1     2     0   504  5.720167669E+00 -7.387785555E+01  9.654000668E+01  2.107003340E+02  1.720000000E+02  0.00000E+00  9.000E+00
      24     2     3     3     0     0  2.830077917E+01  4.114482215E+00 -3.033859454E+02  3.148653334E+02  7.924192840E+01  0.00000E+00  9.000E+00
     -24     2     4     4     0     0  1.667864738E+01 -3.937837576E+01 -1.503282243E+01  9.330629208E+01  8.155516314E+01  0.00000E+00  9.000E+00
     -11     1     5     5     0     0  1.546310049E+01 -2.054843890E+01 -2.776281940E+01  3.784336083E+01  1.685873940E-06  0.00000E+00  9.000E+00
      12     1     5     5     0     0  1.283767868E+01  2.466292112E+01 -2.756231260E+02  2.770219725E+02  5.394796609E-06  0.00000E+00  9.000E+00
      13     1     6     6     0     0  6.680987047E+00 -3.482108060E+01  3.031329837E+01  4.664803640E+01  1.719260824E-06  0.00000E+00  9.000E+00
     -14     1     6     6     0     0  9.997660337E+00 -4.557295169E+00 -4.534612080E+01  4.665825568E+01  9.536743164E-07  0.00000E+00  9.000E+00
       5     1     3     3   502     0 -6.209611404E+01  4.132154049E+01 -8.204269925E+01  1.109818187E+02  4.750000000E+00  0.00000E+00  9.000E+00
      -5     1     4     4     0   504 -1.095847972E+01 -3.449947979E+01  1.115728291E+02  1.173940419E+02  4.750000000E+00  0.00000E+00  9.000E+00
      21     1     1     2   504   512  2.807516720E+01  2.844183285E+01  3.671182881E+01  5.426703644E+01  9.536743164E-07  0.00000E+00  9.000E+00
</event>
<event>
     13  10001  1.00000E+00  7.10285E+00 -1.00000E+00  2.22227E-01
       1    -1     0     0   511     0  0.000000000E+00  0.000000000E+00  1.013743589E+02  1.013743589E+02  0.000000000E+00  0.00000E+00  9.000E+00
      -1    -1     0     0     0   512  0.000000000E+00  0.000000000E+00 -3.885861377E+02  3.885861377E+02  0.000000000E+00  0.00000E+00  9.000E+00
       6     2     1     2   502     0 -1.642835375E+01  8.096480207E+01 -1.547542628E+02  2.456787981E+02  1.720000000E+02  0.00000E+00  9.000E+00
      -6     2     1     2     0   512  1.850467121E+01 -8.775739508E+01 -1.354343041E+02  2.365802908E+02  1.720000000E+02  0.00000E+00  9.000E+00
      24     2     3     3     0     0 -7.414126181E+01  3.482870369E+01 -1.112875269E+02  1.598228783E+02  8.030238783E+01  0.00000E+00  9.000E+00
     -24     2     4     4     0     0  5.738517519E+01 -1.317831964E+00 -3.017694662E+01  9.485814900E+01  6.922878961E+01  0.00000E+00  9.000E+00
     -11     1     5     5     0     0  1.274921441E+01 -6.198574871E+00 -2.027454781E+00  1.432045291E+01  9.753148658E-07  0.00000E+00  9.000E+00
      12     1     5     5     0     0 -8.689047622E+01  4.102727856E+01 -1.092600721E+02  1.455024254E+02  3.303624740E-06  0.00000E+00  9.000E+00
      13     1     6     6     0     0  4.843648812E+01 -1.065377496E+01 -5.049305375E+01  7.077531194E+01  1.651812370E-06  0.00000E+00  9.000E+00
     -14     1     6     6     0     0  8.948687072E+00  9.335942997E+00  2.031610713E+01  2.408283706E+01  9.830249847E-07  0.00000E+00  9.000E+00
       5     1     3     3   502     0  5.771290806E+01  4.613609838E+01 -4.346673591E+01  8.585591978E+01  4.750000000E+00  0.00000E+00  9.000E+00
      -5     1     4     4     0   512 -3.888050399E+01 -8.643956312E+01 -1.052573575E+02  1.417221418E+02  4.750000000E+00  0.00000E+00  9.000E+00
      21     1     1     2   511   502 -2.076317458E+00  6.792593010E+00  2.976788153E+00  7.701407773E+00  1.115100797E-07  0.00000E+00  9.000E+00
</event>
<event>
     13  10001  1.00000E+00  1.18275E+01 -1.00000E+00  1.93380E-01
      -2    -1     0     0     0   513  0.000000000E+00  0.000000000E+00  1.586682698E+02  1.586682698E+02  0.000000000E+00  0.00000E+00  9.000E+00
       2    -1     0     0   502     0  0.000000000E+00  0.000000000E+00 -3.979081212E+02  3.979081212E+02  0.000000000E+00  0.00000E+00  9.000E+00
       6     2     1     2   502     0 -1.235155625E+02 -3.428786141E+01 -5.669499178E+01  2.218785112E+02  1.720000000E+02  0.00000E+00  9.000E+00
      -6     2     1     2     0   512  1.352537317E+02  3.283701293E+01 -2.098461901E+02  3.049446915E+02  1.720000000E+02  0.00000E+00  9.000E+00
      24     2     3     3     0     0 -6.370936398E+01 -1.682266682E+01 -1.002848100E+02  1.456915755E+02  8.262630863E+01  0.00000E+00  9.000E+00
     -24     2     4     4     0     0  7.543285715E+01  7.447835047E+01 -1.852743722E+02  2.278805963E+02  7.978616773E+01  0.00000E+00  9.000E+00
     -11     1     5     5     0     0  9.260929407E+00 -2.202928088E+01 -5.418925422E+01  5.922439787E+01  9.536743164E-07  0.00000E+00  9.000E+00
      12     1     5     5     0     0 -7.297029338E+01  5.206614059E+00 -4.609555581E+01  8.646717766E+01  2.023048729E-06  0.00000E+00  9.000E+00
      13     1     6     6     0     0  3.884593274E+00  4.771011448E+01 -3.498277382E+01  5.928861234E+01  1.581489940E-06  0.00000E+00  9.000E+00
     -14     1     6     6     0     0  7.154826387E+01  2.676823598E+01 -1.502915984E+02  1.685919840E+02  3.303624740E-06  0.00000E+00  9.000E+00
       5     1     3     3   502     0 -5.980619856E+01 -1.746519459E+01  4.358981826E+01  7.618693565E+01  4.750000000E+00  0.00000E+00  9.000E+00
      -5     1     4     4     0   512  5.982087457E+01 -4.164133754E+01 -2.457181788E+01  7.706409514E+01  4.750000000E+00  0.00000E+00  9.000E+00
      21     1     1     2   512   513 -1.173816919E+01  1.450848474E+00  2.730133047E+01  2.975318844E+01  3.371747881E-07  0.00000E+00  9.000E+00
</event>
<event>
     13  10001  1.00000E+00  2.11943E+01 -1.00000E+00  1.68618E-01
      21    -1     0     0   503   504  0.000000000E+00  0.000000000E+00  4.915265368E+02  4.915265368E+02  0.000000000E+00  0.00000E+00  9.000E+00
      21    -1     0     0   502   511  0.000000000E+00  0.000000000E+00 -1.125089874E+02  1.125089874E+02  0.000000000E+00  0.00000E+00  9.000E+00
       6     2     1     2   502     0 -9.994029860E+01 -3.491644797E+01  1.211936764E+02  2.355400790E+02  1.720000000E+02  0.00000E+00  9.000E+00
      -6     2     1     2     0   504  1.176654516E+02  4.653613365E+01  2.698608385E+02  3.441215518E+02  1.720000000E+02  0.00000E+00  9.000E+00
      24     2     3     3     0     0  1.544819042E+01 -1.537665796E+01  5.964808565E+01  1.032270826E+02  8.138088383E+01  0.00000E+00  9.000E+00
     -24     2     4     4     0     0  4.947712524E+01  8.239930068E+01  2.040976415E+02  2.427155600E+02  8.953974031E+01  0.00000E+00  9.000E+00
     -11     1     5     5     0     0  5.204582502E+00 -4.480622033E+01  5.591743573E+01  7.184319507E+01  1.507891493E-06  0.00000E+00  9.000E+00
      12     1     5     5     0     0  1.024360792E+01  2.942956237E+01  3.730649917E+00  3.138388748E+01  6.677316577E-07  0.00000E+00  9.000E+00
      13     1     6     6     0     0  1.873375295E+01  1.359262209E+01 -2.038641558E+00  2.323507982E+01  3.851308818E-07  0.00000E+00  9.000E+00
     -14     1     6     6     0     0  3.074337229E+01  6.880667859E+01  2.061362831E+02  2.194804801E+02  0.000000000E+00  0.00000E+00  9.000E+00
       5     1     3     3   502     0 -1.153884890E+02 -1.953979001E+01  6.154559074E+01  1.323129965E+02  4.750000000E+00  0.00000E+00  9.000E+00
      -5     1     4     4     0   504  6.818832632E+01 -3.586316704E+01  6.576319700E+01  1.014059918E+02  4.750000000E+00  0.00000E+00  9.000E+00
      21     1     1     2   503   511 -1.772515296E+01 -1.161968567E+01 -1.203696554E+01  2.437389345E+01  1.685873940E-07  0.00000E+00  9.000E+00
</event>
<event>
     13  10001  1.00000E+00  3.97901E+01 -1.00000E+00  1.48294E-01
      21    -1     0     0   503   512  0.000000000E+00  0.000000000E+00  1.503694753E+02  1.503694753E+02  0.000000000E+00  0.00000E+00  9.000E+00
      21    -1     0     0   502   503  0.000000000E+00  0.000000000E+00 -4.933280723E+02  4.933280723E+02  0.000000000E+00  0.00000E+00  9.000E+00
       6     2     1     2   502     0 -1.013268775E+02  5.798017730E+01 -1.592728964E+02  2.618791564E+02  1.720000000E+02  0.00000E+00  9.000E+00
      -6     2     1     2     0   504  8.470817472E+01 -2.182678902E+01 -2.430594927E+02  3.103446481E+02  1.720000000E+02  0.00000E+00  9.000E+00
      24     2     3     3     0     0 -6.200761593E+01  8.678653318E+01 -1.657187823E+02  2.124835856E+02  7.943369936E+01  0.00000E+00  9.000E+00
     -24     2     4     4     0     0  2.284869828E+01 -7.506674522E+01 -1.541036374E+02  1.895274537E+02  7.756059174E+01  0.00000E+00  9.000E+00
     -11     1     5     5     0     0 -2.905763188E+01  5.539325782E+01 -3.007111204E+01  6.940483240E+01  7.539457465E-07  0.00000E+00  9.000E+00
      12     1     5     5     0     0 -3.294998406E+01  3.139327537E+01 -1.356476702E+02  1.430787532E+02  1.907348633E-06  0.00000E+00  9.000E+00
      13     1     6     6     0     0  4.654290876E+01 -2.053624942E+01 -7.047545614E+01  8.691817885E+01  9.536743164E-07  0.00000E+00  9.000E+00
     -14     1     6     6     0     0 -2.369421048E+01 -5.453049580E+01 -8.362818126E+01  1.026092748E+02  0.000000000E+00  0.00000E+00  9.000E+00
       5     1     3     3   502     0 -3.931926157E+01 -2.880635589E+01  6.445885908E+00  4.939557080E+01  4.750000000E+00  0.00000E+00  9.000E+00
      -5     1     4     4     0   504  6.185947644E+01  5.323995620E+01 -8.895585531E+01  1.208171944E+02  4.750000000E+00  0.00000E+00  9.000E+00
      21     1     1     2   504   512  1.661870278E+01 -3.615338828E+01  5.937379211E+01  7.147374312E+01  1.507891493E-06  0.00000E+00  9.000E+00
</event>
<event>
     13  10001  1.00000E+00  2.42985E+01 -1.00000E+00  1.63733E-01
      21    -1     0     0   502   511  0.000000000E+00  0.000000000E+00  1.541430474E+02  1.541430474E+02  0.000000000E+00  0.00000E+00  9.000E+00
      21    -1     0     0   503   504  0.000000000E+00  0.000000000E+00 -2.998531491E+02  2.998531491E+02  0.000000000E+00  0.00000E+00  9.000E+00
       6     2     1     2   502     0 -5.214902095E+01  2.401348550E+01 -1.429122723E+02  2.308767755E+02  1.720000000E+02  0.00000E+00  9.000E+00
      -6     2     1     2     0   504  6.806709100E+01 -4.237198600E+01 -2.347211728E+01  1.912157273E+02  1.720000000E+02  0.00000E+00  9.000E+00
      24     2     3     3     0     0  3.409743036E+01  3.627461922E+01 -7.991546570E+01  1.232666184E+02  7.955937903E+01  0.00000E+00  9.000E+00
     -24     2     4     4     0     0  4.843978252E+01 -9.235140737E+01 -3.460585769E+01  1.361730486E+02  8.043841628E+01  0.00000E+00  9.000E+00
     -11     1     5     5     0     0  3.640174379E+01 -1.088244483E+01 -1.068139270E+01  3.946652641E+01  1.192092896E-07  0.00000E+00  9.000E+00
      12     1     5     5     0     0 -2.304313431E+00  4.715706405E+01 -6.923407300E+01  8.380009197E+01  9.536743164E-07  0.00000E+00  9.000E+00
      13     1     6     6     0     0  6.891519456E+01 -8.580285773E+01 -3.135507937E+01  1.144315317E+02  5.840038640E-07  0.00000E+00  9.000E+00
     -14     1     6     6     0     0 -2.047541204E+01 -6.548549632E+00 -3.250778322E+00  2.174151697E+01  7.609811625E-07  0.00000E+00  9.000E+00
       5     1     3     3   502     0 -8.624645131E+01 -1.226113373E+01 -6.299680660E+01  1.076101571E+02  4.750000000E+00  0.00000E+00  9.000E+00
      -5     1     4     4     0   504  1.962730848E+01  4.997942137E+01  1.113374041E+01  5.504267866E+01  4.750000000E+00  0.00000E+00  9.000E+00
      21     1     1     2   503   511 -1.591807005E+01  1.835850050E+01  2.067428789E+01  3.190369374E+01  0.000000000E+00  0.00000E+00  9.000E+00
</event>
<event>
     13  10001  1.00000E+00  6.91532E+01 -1.00000E+00  1.34193E-01
      21    -1     0     0   502   503  0.000000000E+00  0.000000000E+00  7.255736421E+02  7.255736421E+02  0.000000000E+00  0.00000E+00  9.000E+00
      21    -1     0     0   503   512  0.000000000E+00  0.000000000E+00 -2.423287933E+02  2.423287933E+02  0.000000000E+00  0.00000E+00  9.000E+00
       6     2     1     2   502     0 -3.071077331E+02 -1.727578705E+02  3.262019031E+02  5.100510986E+02  1.720000000E+02  0.00000E+00  9.000E+00
      -6     2     1     2     0   504  2.888798372E+02  1.060502343E+02  1.630915408E+02  3.884341169E+02  1.720000000E+02  0.00000E+00  9.000E+00
      24     2     3     3     0     0 -2.816297875E+02 -1.732845281E+02  3.396339872E+02  4.808554403E+02  8.079507588E+01  0.00000E+00  9.000E+00
     -24     2     4     4     0     0  1.716781474E+02  9.499071076E+01  3.837958310E+01  2.168701812E+02  8.404202325E+01  0.00000E+00  9.000E+00
     -11     1     5     5     0     0 -1.823630007E+02 -7.240462403E+01  1.672892215E+02  2.578456461E+02  3.814697266E-06  0.00000E+00  9.000E+00
      12     1     5     5     0     0 -9.926678680E+01 -1.008799040E+02  1.723447658E+02  2.230097942E+02  2.697398305E-06  0.00000E+00  9.000E+00
      13     1     6     6     0     0  2.440614324E+01  5.446663292E+01  2.037637790E+01  6.306719199E+01  8.596304120E-07  0.00000E+00  9.000E+00
     -14     1     6     6     0     0  1.472720041E+02  4.052407784E+01  1.800320519E+01  1.538029892E+02  4.074098466E-06  0.00000E+00  9.000E+00
       5     1     3     3   502     0 -2.547794560E+01  5.266575804E-01 -1.343208409E+01  2.919565830E+01  4.750000000E+00  0.00000E+00  9.000E+00
      -5     1     4     4     0   504  1.172016898E+02  1.105952352E+01  1.247119577E+02  1.715639357E+02  4.750000000E+00  0.00000E+00  9.000E+00
      21     1     1     2   504   512  1.822789596E+01  6.670763622E+01 -6.048595160E+00  6.941721994E+01  5.196212463E-07  0.00000E+00  9.000E+00
</event>
<event>
     13  10001  1.00000E+00  7.31376E+01 -1.00000E+00  1.32915E-01
      21    -1     0     0   503   504  0.000000000E+00  0.000000000E+00  1.611699538E+02  1.611699538E+02  0.000000000E+00  0.00000E+00  9.000E+00
      21    -1     0     0   502   511  0.000000000E+00  0.000000000E+00 -9.768484735E+02  9.768484735E+02  0.000000000E+00  0.00000E+00  9.000E+00
       6     2     1     2   502     0  1.370797995E+02  2.092582618E+02 -3.424630217E+02  4.576514097E+02  1.720000000E+02  0.00000E+00  9.000E+00
      -6     2     1     2     0   504 -1.238970627E+02 -1.373185025E+02 -5.850413274E+01  2.592558328E+02  1.720000000E+02  0.00000E+00  9.000E+00
      24     2     3     3     0     0  4.817062037E+01  6.950483058E+01 -6.363912174E+01  1.333040752E+02  8.104756949E+01  0.00000E+00  9.000E+00
     -24     2     4     4     0     0 -1.424874686E+02 -1.504477871E+02 -3.281904632E+01  2.246109563E+02  8.022329164E+01  0.00000E+00  9.000E+00
     -11     1     5     5     0     0  2.071391595E+01 -9.986537153E+00 -3.967394011E+01  4.585650185E+01  9.536743164E-07  0.00000E+00  9.000E+00
      12     1     5     5     0     0  2.745670442E+01  7.949136773E+01 -2.396518162E+01  8.744757339E+01  9.536743164E-07  0.00000E+00  9.000E+00
      13     1     6     6     0     0 -9.602505122E+01 -9.061601834E+01 -5.879167115E+01  1.445286610E+02  3.568322551E-06  0.00000E+00  9.000E+00
     -14     1     6     6     0     0 -4.646241743E+01 -5.983176871E+01  2.597262483E+01  8.008229530E+01  2.633419279E-06  0.00000E+00  9.000E+00
       5     1     3     3   502     0  8.890917911E+01  1.397534312E+02 -2.788239000E+02  3.243473345E+02  4.750000000E+00  0.00000E+00  9.000E+00
      -5     1     4     4     0   504  1.859040591E+01  1.312928454E+01 -2.568508643E+01  3.464487652E+01  4.750000000E+00  0.00000E+00  9.000E+00
      21     1     1     2   503   511 -1.318273674E+01 -7.193975929E+01 -4.147113652E+02  4.211111848E+02  5.394796609E-06  0.00000E+00  9.000E+00
</event>
<event>
     13  10001  1.00000E+00  2.78092E+01 -1.00000E+00  1.59188E-01
      21    -1     0     0   503   504  0.000000000E+00  0.000000000E+00  1.886589122E+02  1.886589122E+02  0.000000000E+00  0.00000E+00  9.000E+00
       2    -1     0     0   502     0  0.000000000E+00  0.000000000E+00 -3.392733223E+02  3.392733223E+02  0.000000000E+00  0.00000E+00  9.000E+00
       6     2     1     2   502     0 -7.518634902E+01 -3.220337223E+01 -1.094312210E+02  2.196570882E+02  1.720000000E+02  0.00000E+00  9.000E+00
      -6     2     1     2     0   504  9.073827390E+01  5.525743958E+01  5.388476962E+01  2.092232955E+02  1.720000000E+02  0.00000E+00  9.000E+00
      24     2     3     3     0     0 -5.444007988E+01 -4.488936308E+01 -2.654961728E-01  1.077148709E+02  8.138578316E+01  0.00000E+00  9.000E+00
     -24     2     4     4     0     0  1.057810983E+02  3.345547857E+01 -1.204038072E+01  1.380172563E+02  8.120888169E+01  0.00000E+00  9.000E+00
     -11     1     5     5     0     0 -4.286028269E+01 -3.303461615E+00  3.219264455E+01  5.370552163E+01  6.743495762E-07  0.00000E+00  9.000E+00
      12     1     5     5     0     0 -1.157979719E+01 -4.158590147E+01 -3.245814073E+01  5.400934922E+01  0.000000000E+00  0.00000E+00  9.000E+00
      13     1     6     6     0     0  8.440976708E+01  5.887472076E+01 -6.724562550E-01  1.029159546E+02  2.925024309E-06  0.00000E+00  9.000E+00
     -14     1     6     6     0     0  2.137133122E+01 -2.541924219E+01 -1.136792447E+01  3.510130166E+01  9.078709013E-07  0.00000E+00  9.000E+00
       5     1     3     3   502     0 -2.074626915E+01  1.268599085E+01 -1.091657248E+02  1.119422173E+02  4.750000000E+00  0.00000E+00  9.000E+00
      -5     1     4     4     0   504 -1.504282440E+01  2.180196101E+01  6.592515034E+01  7.120603919E+01  4.750000000E+00  0.00000E+00  9.000E+00
       2     1     1     2   503     0 -1.555192488E+01 -2.305406735E+01 -9.506795866E+01  9.905185083E+01  1.348699152E-06  0.00000E+00  9.000E+00
</event>
<event>
     13  10001  1.00000E+00  3.49789E+00 -1.00000E+00  2.91161E-01
       1    -1     0     0   502     0  0.000000000E+00  0.000000000E+00  3.405023757E+02  3.405023757E+02  0.000000000E+00  0.00000E+00  9.000E+00
      -1    -1     0     0     0   511  0.000000000E+00  0.000000000E+00 -1.850362122E+02  1.850362122E+02  0.000000000E+00  0.00000E+00  9.000E+00
       6     2     1     2   502     0  1.114134366E+02 -9.206901444E+01 -2.831588734E+01  2.264408240E+02  1.720000000E+02  0.00000E+00  9.000E+00
      -6     2     1     2     0   512 -1.101252361E+02  8.881697736E+01  1.894822563E+02  2.924098982E+02  1.720000000E+02  0.00000E+00  9.000E+00
      24     2     3     3     0     0  1.163864408E+02 -1.049293553E+02  2.199863728E+01  1.740553963E+02  7.249391513E+01  0.00000E+00  9.000E+00
     -24     2     4     4     0     0 -1.243573890E+02  1.157833714E+02  1.796471275E+02  2.600211217E+02  8.041979886E+01  0.00000E+00  9.000E+00
     -11     1     5     5     0     0  9.569368753E+01 -1.124786259E+02  7.871248564E+00  1.478873884E+02  2.517546664E-06  0.00000E+00  9.000E+00
      12     1     5     5     0     0  2.069275332E+01  7.549270525E+00  1.412738872E+01  2.616800790E+01  2.920019320E-07  0.00000E+00  9.000E+00
      13     1     6     6     0     0 -8.425689144E+01  2.533972157E+01  7.083067126E+01  1.129526858E+02  2.336015456E-06  0.00000E+00  9.000E+00
     -14     1     6     6     0     0 -4.010049756E+01  9.044364981E+01  1.088164562E+02  1.470684359E+02  2.336015456E-06  0.00000E+00  9.000E+00
       5     1     3     3   502     0 -4.973004211E+00  1.286034090E+01 -5.031452462E+01  5.238542762E+01  4.750000000E+00  0.00000E+00  9.000E+00
      -5     1     4     4     0   512  1.423215285E+01 -2.696639403E+01  9.835128845E+00  3.238877646E+01  4.750000000E+00  0.00000E+00  9.000E+00
      21     1     1     2   512   511 -1.288200486E+00  3.252037084E+00 -5.700205451E+00  6.687865719E+00  8.429369702E-08  0.00000E+00  9.000E+00
</event>
<event>
     13  10001  1.00000E+00  1.89349E+02 -1.00000E+00  1.14480E-01
      21    -1     0     0   513   512  0.000000000E+00  0.000000000E+00  2.601644090E+02  2.601644090E+02  0.000000000E+00  0.00000E+00  9.000E+00
       1    -1     0     0   502     0  0.000000000E+00  0.000000000E+00 -7.540052820E+02  7.540052820E+02  0.000000000E+00  0.00000E+00  9.000E+00
       6     2     1     2   502     0 -5.151543040E+00  1.353264498E+02 -4.076321464E+01  2.226778527E+02  1.720000000E+02  0.00000E+00  9.000E+00
      -6     2     1     2     0   512 -7.851942245E+01  3.453314814E+01  9.299836712E+01  2.135194003E+02  1.720000000E+02  0.00000E+00  9.000E+00
      24     2     3     3     0     0 -3.676693356E+01  1.036924726E+01 -2.506790341E+01  9.274425165E+01  8.070791622E+01  0.00000E+00  9.000E+00
     -24     2     4     4     0     0  2.056292997E+01  4.211234305E+01  3.981027073E+01  1.007085283E+02  7.975629430E+01  0.00000E+00  9.000E+00
     -11     1     5     5     0     0 -5.458826613E+00  2.559267823E+01  2.200918660E+01  3.419339500E+01  7.152557373E-07  0.00000E+00  9.000E+00
      12     1     5     5     0     0 -3.130810695E+01 -1.522343097E+01 -4.707709001E+01  5.855085665E+01  1.784161275E-06  0.00000E+00  9.000E+00
      13     1     6     6     0     0  2.214289646E+00  1.017095750E+01  5.848825123E+01  5.940729742E+01  6.743495762E-07  0.00000E+00  9.000E+00
     -14     1     6     6     0     0  1.834864033E+01  3.194138556E+01 -1.867798050E+01  4.130123084E+01  9.536743164E-07  0.00000E+00  9.000E+00
       5     1     3     3   502     0  3.161539052E+01  1.249572025E+02 -1.569531123E+01  1.299336010E+02  4.750000000E+00  0.00000E+00  9.000E+00
      -5     1     4     4     0   512 -9.908235242E+01 -7.579194911E+00  5.318809639E+01  1.128108721E+02  4.750000000E+00  0.00000E+00  9.000E+00
       1     1     1     2   513     0  8.367096549E+01 -1.698595979E+02 -5.460760255E+02  5.779724380E+02  1.321449896E-05  0.00000E+00  9.000E+00
</event>
<event>
     13  10001  1.00000E+00  8.71670E+01 -1.00000E+00  1.29070E-01
      -1    -1     0     0     0   512  0.000000000E+00  0.000000000E+00  5.685025271E+02  5.685025271E+02  0.000000000E+00  0.00000E+00  9.000E+00
       1    -1     0     0   511     0  0.000000000E+00  0.000000000E+00 -2.332598149E+02  2.332598149E+02  0.000000000E+00  0.00000E+00  9.000E+00
       6     2     1     2   502     0 -1.093254768E+02 -2.988433155E+01 -8.526936456E+01  2.229349629E+02  1.720000000E+02  0.00000E+00  9.000E+00
      -6     2     1     2     0   512  1.393764807E+02 -5.193882759E+01  4.346334598E+02  4.905238930E+02  1.720000000E+02  0.00000E+00  9.000E+00
      24     2     3     3     0     0 -8.391988195E+01 -4.296856505E+01  9.543865829E+00  1.237948975E+02  7.965705929E+01  0.00000E+00  9.000E+00
     -24     2     4     4     0     0  1.372320503E+02 -3.189807453E+01  2.120432984E+02  2.669726173E+02  8.038591443E+01  0.00000E+00  9.000E+00
     -11     1     5     5     0     0 -8.621675206E+01 -5.846704055E+01 -2.231446063E+00  1.041955014E+02  2.409200277E-06  0.00000E+00  9.000E+00
      12     1     5     5     0     0  2.296870111E+00  1.549847550E+01  1.177531189E+01  1.959939604E+01  3.371747881E-07  0.00000E+00  9.000E+00
      13     1     6     6     0     0  7.320455695E+01 -1.049608915E+01  4.442715901E+01  8.627193926E+01  4.768371582E-07  0.00000E+00  9.000E+00
     -14     1     6     6     0     0  6.402749333E+01 -2.140198538E+01  1.676161394E+02  1.807006781E+02  3.814697266E-06  0.00000E+00  9.000E+00
       5     1     3     3   502     0 -2.540559483E+01  1.308423350E+01 -9.481323039E+01  9.914006542E+01  4.750000000E+00  0.00000E+00  9.000E+00
      -5     1     4     4     0   512  2.144430381E+00 -2.004075306E+01  2.225901614E+02  2.235512756E+02  4.750000000E+00  0.00000E+00  9.000E+00
      21     1     1     2   511   502 -3.005100389E+01  8.182315914E+01 -1.412138309E+01  8.830348616E+01  6.529361695E-07  0.00000E+00  9.000E+00
</event>
<event>
     13  10001  1.00000E+00  1.40027E+02 -1.00000E+00  1.19737E-01
       2    -1     0     0   502     0  0.000000000E+00  0.000000000E+00  2.146755956E+02  2.146755956E+02  0.000000000E+00  0.00000E+00  9.000E+00
      21    -1     0     0   513   512  0.000000000E+00  0.000000000E+00 -4.043828535E+02  4.043828535E+02  0.000000000E+00  0.00000E+00  9.000E+00
       6     2     1     2   502     0 -1.047915527E+01  3.654482068E+01 -4.776460090E+01  1.825124481E+02  1.720000000E+02  0.00000E+00  9.000E+00
      -6     2     1     2     0   512  1.153651009E+02 -1.293156489E+02 -1.649255389E+02  2.946456803E+02  1.720000000E+02  0.00000E+00  9.000E+00
      24     2     3     3     0     0 -4.822664444E+01 -2.848165473E+01 -4.445500440E+01  1.071013656E+02  7.973356380E+01  0.00000E+00  9.000E+00
     -24     2     4     4     0     0  1.042336325E+02 -1.037501570E+02 -1.927785572E+02  2.549486137E+02  7.878120521E+01  0.00000E+00  9.000E+00
     -11     1     5     5     0     0  1.550653482E+01  8.935321847E+00 -2.487965090E+01  3.064783235E+01  4.768371582E-07  0.00000E+00  9.000E+00
      12     1     5     5     0     0 -6.373317926E+01 -3.741697658E+01 -1.957535350E+01  7.645353320E+01  1.545128989E-06  0.00000E+00  9.000E+00
      13     1     6     6     0     0  2.786251923E+01  9.121052872E+00 -2.314363403E+01  3.735159140E+01  4.768371582E-07  0.00000E+00  9.000E+00
     -14     1     6     6     0     0  7.637111322E+01 -1.128712099E+02 -1.696349232E+02  2.175970223E+02  4.672030912E-06  0.00000E+00  9.000E+00
       5     1     3     3   502     0  3.774748917E+01  6.502647541E+01 -3.309596501E+00  7.541108255E+01  4.750000000E+00  0.00000E+00  9.000E+00
      -5     1     4     4     0   512  1.113146844E+01 -2.556549191E+01  2.785301835E+01  3.969706661E+01  4.750000000E+00  0.00000E+00  9.000E+00
       2     1     1     2   513     0 -1.048859456E+02  9.277082827E+01  2.298288184E+01  1.419003207E+02  1.815741803E-06  0.00000E+00  9.000E+00
</event>
<event>
     13  10001  1.00000E+00  3.56020E+01 -1.00000E+00  1.51508E-01
      21    -1     0     0   503   504  0.000000000E+00  0.000000000E+00  1.084034929E+02  1.084034929E+02  0.000000000E+00  0.00000E+00  9.000E+00
       2    -1     0     0   502     0  0.000000000E+00  0.000000000E+00 -6.443827506E+02  6.443827506E+02  0.000000000E+00  0.00000E+00  9.000E+00
       6     2     1     2   502     0  3.289051074E+01  9.928481405E+01 -1.123757270E+02  2.305462297E+02  1.720000000E+02  0.00000E+00  9.000E+00
      -6     2     1     2     0   504 -5.322138728E+00 -7.675739984E+01 -1.358471861E+02  2.322896501E+02  1.720000000E+02  0.00000E+00  9.000E+00
      24     2     3     3     0     0  3.921627323E-01 -8.371959684E+00 -1.387529026E+01  8.097677392E+01  7.933770059E+01  0.00000E+00  9.000E+00
     -24     2     4     4     0     0 -3.279925457E+00  2.024496211E+01 -9.372619735E+01  1.264106199E+02  8.230691553E+01  0.00000E+00  9.000E+00
     -11     1     5     5     0     0 -1.538341249E+01  1.114000923E+01 -4.029113318E+01  4.454351354E+01  4.768371582E-07  0.00000E+00  9.000E+00
      12     1     5     5     0     0  1.577557523E+01 -1.951196892E+01  2.641584292E+01  3.643326038E+01  8.920806376E-07  0.00000E+00  9.000E+00
      13     1     6     6     0     0 -3.211250643E+01  3.706966220E+01 -4.060998085E+01  6.367529717E+01  1.581489940E-06  0.00000E+00  9.000E+00
     -14     1     6     6     0     0  2.883258098E+01 -1.682470009E+01 -5.311621650E+01  6.273532270E+01  1.348699152E-06  0.00000E+00  9.000E+00
       5     1     3     3   502     0  3.249834801E+01  1.076567737E+02 -9.850043677E+01  1.495694558E+02  4.750000000E+00  0.00000E+00  9.000E+00
      -5     1     4     4     0   504 -2.042213271E+00 -9.700236195E+01 -4.212098876E+01  1.058790303E+02  4.750000000E+00  0.00000E+00  9.000E+00
       2     1     1     2   503     0 -2.756837201E+01 -2.252741421E+01 -2.877563446E+02  2.899503636E+02  0.000000000E+00  0.00000E+00  9.000E+00
</event>
<event>
     13  10001  1.00000E+00  6.57465E+01 -1.00000E+00  1.35367E-01
      21    -1     0     0   511   504  0.000000000E+00  0.000000000E+00  1.211562089E+02  1.211562089E+02  0.000000000E+00  0.00000E+00  9.000E+00
      21    -1     0     0   502   503  0.000000000E+00  0.000000000E+00 -4.797905766E+02  4.797905766E+02  0.000000000E+00  0.00000E+00  9.000E+00
       6     2     1     2   502     0 -1.065871637E+02 -2.002940527E+01 -1.716341506E+02  2.660907405E+02  1.720000000E+02  0.00000E+00  9.000E+00
      -6     2     1     2     0   504  8.931970107E+01  8.346780851E+01 -1.543845596E+02  2.614641014E+02  1.720000000E+02  0.00000E+00  9.000E+00
      24     2     3     3     0     0 -4.670024339E+01  1.838120992E+01 -1.698744621E+02  1.947641845E+02  8.097513857E+01  0.00000E+00  9.000E+00
     -24     2     4     4     0     0  6.766179115E+01  1.253279614E+02 -1.217187094E+02  2.039231791E+02  8.052330638E+01  0.00000E+00  9.000E+00
     -11     1     5     5     0     0 -1.096578492E+01 -4.832687173E+00  6.279722783E+00  1.352916193E+01  3.039252468E-07  0.00000E+00  9.000E+00
      12     1     5     5     0     0 -3.573445847E+01  2.321389709E+01 -1.761541849E+02  1.812350226E+02  3.303624740E-06  0.00000E+00  9.000E+00
      13     1     6     6     0     0  4.746598440E+01  1.392012420E+01 -2.730929948E+01  5.650298551E+01  8.920806376E-07  0.00000E+00  9.000E+00
     -14     1     6     6     0     0  2.019580675E+01  1.114078372E+02 -9.440940993E+01  1.474201936E+02  1.907348633E-06  0.00000E+00  9.000E+00
       5     1     3     3   502     0 -5.988692035E+01 -3.841061519E+01 -1.759688406E+00  7.132655601E+01  4.750000000E+00  0.00000E+00  9.000E+00
      -5     1     4     4     0   504  2.165790992E+01 -4.186015290E+01 -3.266585018E+01  5.754092223E+01  4.750000000E+00  0.00000E+00  9.000E+00
      21     1     1     2   511   503  1.726746267E+01 -6.343840324E+01 -3.261565759E+01  7.339194366E+01  1.168007728E-06  0.00000E+00  9.000E+00
</event>
<event>
     13  10001  1.00000E+00  1.24094E+01 -1.00000E+00  1.91059E-01
      21    -1     0     0   503   504  0.000000000E+00  0.000000000E+00  1.277852036E+03  1.277852036E+03  0.000000000E+00  0.00000E+00  9.000E+00
       1    -1     0     0   502     0  0.000000000E+00  0.000000000E+00 -6.342501348E+02  6.342501348E+02  0.000000000E+00  0.00000E+00  9.000E+00
       6     2     1     2   502     0  3.752708049E+01  1.100195194E+02  8.952052509E+01  2.260763164E+02  1.720000000E+02  0.00000E+00  9.000E+00
      -6     2     1     2     0   504 -4.508230327E+01 -1.001751830E+02  1.110687123E+03  1.129281793E+03  1.720000000E+02  0.00000E+00  9.000E+00
      24     2     3     3     0     0 -3.058026313E+01  2.930609950E+01  7.739177267E+01  1.196670332E+02  8.084993756E+01  0.00000E+00  9.000E+00
     -24     2     4     4     0     0 -3.566535867E+00 -1.487468251E-01  6.967405131E+02  7.013761892E+02  8.042682312E+01  0.00000E+00  9.000E+00
     -11     1     5     5     0     0 -8.969045056E+00  5.610268950E+01  4.664121098E+01  7.350753771E+01  1.907348633E-06  0.00000E+00  9.000E+00
      12     1     5     5     0     0 -2.161121807E+01 -2.679659000E+01  3.075056169E+01  4.615949552E+01  8.920806376E-07  0.00000E+00  9.000E+00
      13     1     6     6     0     0  9.720670576E+00  2.945429442E+01  1.277588706E+02  1.314700571E+02  0.000000000E+00  0.00000E+00  9.000E+00
     -14     1     6     6     0     0 -1.328720644E+01 -2.960304125E+01  5.689816424E+02  5.699061320E+02  7.629394531E-06  0.00000E+00  9.000E+00
       5     1     3     3   502     0  6.810734362E+01  8.071341992E+01  1.212875242E+01  1.064092832E+02  4.750000000E+00  0.00000E+00  9.000E+00
      -5     1     4     4     0   504 -4.151576740E+01 -1.000264361E+02  4.139466102E+02  4.279056034E+02  4.750000000E+00  0.00000E+00  9.000E+00
       1     1     1     2   503     0  7.555222776E+00 -9.844336456E+00 -5.566057473E+02  5.567440617E+02  1.078959322E-05  0.00000E+00  9.000E+00
</event>
<event>
     13  10001  1.00000E+00  1.06341E+01 -1.00000E+00  1.98736E-01
       1    -1     0     0   511     0  0.000000000E+00  0.000000000E+00  1.988013572E+02  1.988013572E+02  0.000000000E+00  0.00000E+00  9.000E+00
      -1    -1     0     0     0   512  0.000000000E+00  0.000000000E+00 -2.898495063E+02  2.898495063E+02  0.000000000E+00  0.00000E+00  9.000E+00
       6     2     1     2   502     0 -1.366232877E+02 -1.222372503E+01 -1.260360115E+02  2.535437209E+02  1.720000000E+02  0.00000E+00  9.000E+00
      -6     2     1     2     0   512  1.380881108E+02  2.275646608E+01  3.184623539E+01  2.240186729E+02  1.720000000E+02  0.00000E+00  9.000E+00
      24     2     3     3     0     0 -5.440102365E+01  1.415430969E+01 -1.346383418E+02  1.666365059E+02  8.050109419E+01  0.00000E+00  9.000E+00
     -24     2     4     4     0     0  1.507468852E+02  8.047165930E+00 -1.211189953E+01  1.757331864E+02  8.914075630E+01  0.00000E+00  9.000E+00
     -11     1     5     5     0     0 -3.041868962E+01 -1.282770411E+01 -6.677963568E+00  3.368147664E+01  5.900558792E-07  0.00000E+00  9.000E+00
      12     1     5     5     0     0 -2.398233403E+01  2.698201379E+01 -1.279603783E+02  1.329550293E+02  3.814697266E-06  0.00000E+00  9.000E+00
      13     1     6     6     0     0  1.614145428E+02  8.331268807E+00 -2.931043134E+00  1.616559794E+02  2.120367695E-06  0.00000E+00  9.000E+00
     -14     1     6     6     0     0 -1.066765762E+01 -2.841028771E-01 -9.180856397E+00  1.407720703E+01  7.251217997E-07  0.00000E+00  9.000E+00
       5     1     3     3   502     0 -8.222226403E+01 -2.637803472E+01  8.602330312E+00  8.690721492E+01  4.750000000E+00  0.00000E+00  9.000E+00
      -5     1     4     4     0   512 -1.265877434E+01  1.470930015E+01  4.395813492E+01  4.828548648E+01  4.750000000E+00  0.00000E+00  9.000E+00
      21     1     1     2   511   502 -1.464823132E+00 -1.053274105E+01  3.141626963E+00  1.108846972E+01  1.115100797E-07  0.00000E+00  9.000E+00
</event>
<event>
     13  10001  1.00000E+00  4.54809E+01 -1.00000E+00  1.44611E-01
      21    -1     0     0   503   504  0.000000000E+00  0.000000000E+00  3.082732853E+02  3.082732853E+02  0.000000000E+00  0.00000E+00  9.000E+00
      21    -1     0     0   502   512  0.000000000E+00  0.000000000E+00 -1.095697497E+03  1.095697497E+03  0.000000000E+00  0.00000E+00  9.000E+00
       6     2     1     2   502     0 -5.511524297E+01 -3.406934861E+01 -1.330198729E+02  2.268847661E+02  1.720000000E+02  0.00000E+00  9.000E+00
      -6     2     1     2     0   504  7.545229638E+01 -6.611317533E+00  2.268904426E+02  2.946184507E+02  1.720000000E+02  0.00000E+00  9.000E+00
      24     2     3     3     0     0 -4.329112863E+01 -5.449847020E+01 -1.442438107E+01  1.058698420E+02  7.846117258E+01  0.00000E+00  9.000E+00
     -24     2     4     4     0     0  7.460737168E+01  2.995663836E+01  7.241003654E+01  1.357956323E+02  8.205839545E+01  0.00000E+00  9.000E+00
     -11     1     5     5     0     0 -2.603509931E+01 -1.547296901E+01  3.114414271E+01  4.344187831E+01  4.768371582E-07  0.00000E+00  9.000E+00
      12     1     5     5     0     0 -1.725602932E+01 -3.902550119E+01 -4.556852377E+01  6.242796368E+01  1.507891493E-06  0.00000E+00  9.000E+00
      13     1     6     6     0     0  3.906466543E+01  5.532663846E+01  2.733347303E+01  7.303563347E+01  2.211002945E-06  0.00000E+00  9.000E+00
     -14     1     6     6     0     0  3.554270624E+01 -2.537000010E+01  4.507656351E+01  6.275999880E+01  6.743495762E-07  0.00000E+00  9.000E+00
       5     1     3     3   502     0 -1.182411434E+01  2.042912158E+01 -1.185954918E+02  1.210149241E+02  4.750000000E+00  0.00000E+00  9.000E+00
      -5     1     4     4     0   504  8.449247063E-01 -3.656795589E+01  1.544804060E+02  1.588228184E+02  4.750000000E+00  0.00000E+00  9.000E+00
      21     1     1     2   503   512 -2.033705341E+01  4.068066615E+01 -8.812947815E+02  8.824675655E+02  1.525878906E-05  0.00000E+00  9.000E+00
</event>
<event>
     13  10001  1.00000E+00  2.97263E+01 -1.00000E+00  1.57038E-01
      21    -1     0     0   502   503  0.000000000E+00  0.000000000E+00  3.521632942E+02  3.521632942E+02  0.000000000E+00  0.00000E+00  9.000E+00
      -2    -1     0     0     0   504  0.000000000E+00  0.000000000E+00 -1.501044941E+02  1.501044941E+02  0.000000000E+00  0.00000E+00  9.000E+00
       6     2     1     2   502     0 -4.992075095E+01  2.393149882E+01  6.481783699E+01  1.919639289E+02  1.720000000E+02  0.00000E+00  9.000E+00
      -6     2     1     2     0   504  3.013251947E+01 -1.748657653E+00  1.847765451E+02  2.542388605E+02  1.720000000E+02  0.00000E+00  9.000E+00
      24     2     3     3     0     0 -4.454049134E+01  5.074831611E+01  9.952969594E+01  1.475166058E+02  8.541511369E+01  0.00000E+00  9.000E+00
     -24     2     4     4     0     0  5.674224959E+01  3.815075887E+00  1.999218788E+02  2.227590812E+02  8.011624637E+01  0.00000E+00  9.000E+00
     -11     1     5     5     0     0  1.096654174E+01  4.296053365E+01  1.643777880E+01  4.728713420E+01  9.233911863E-07  0.00000E+00  9.000E+00
      12     1     5     5     0     0 -5.550703308E+01  7.787782462E+00  8.309191713E+01  1.002294716E+02  0.000000000E+00  0.00000E+00  9.000E+00
      13     1     6     6     0     0 -1.375880227E+00 -1.007798447E+01 -3.488561923E+00  1.075308708E+01  4.460403188E-07  0.00000E+00  9.000E+00
     -14     1     6     6     0     0  5.811812982E+01  1.389306036E+01  2.034104408E+02  2.120059941E+02  0.000000000E+00  0.00000E+00  9.000E+00
       5     1     3     3   502     0 -5.380259605E+00 -2.681681729E+01 -3.471185895E+01  4.444732314E+01  4.750000000E+00  0.00000E+00  9.000E+00
      -5     1     4     4     0   504 -2.660973013E+01 -5.563733540E+00 -1.514533370E+01  3.147977924E+01  4.750000000E+00  0.00000E+00  9.000E+00
      -2     1     1     2     0   503  1.978823148E+01 -2.218284117E+01 -4.753558198E+01  5.606499890E+01  6.743495762E-07  0.00000E+00  9.000E+00
</event>
<event>
     13  10001  1.00000E+00  9.20040E+01 -1.00000E+00  1.27932E-01
      21    -1     0     0   511   512  0.000000000E+00  0.000000000E+00  2.317224043E+02  2.317224043E+02  0.000000000E+00  0.00000E+00  9.000E+00
       1    -1     0     0   502     0  0.000000000E+00  0.000000000E+00 -4.368995153E+02  4.368995153E+02  0.000000000E+00  0.00000E+00  9.000E+00
       6     2     1     2   502     0 -6.758081316E+01  2.960883889E+00  8.436904730E+01  2.031700502E+02  1.720000000E+02  0.00000E+00  9.000E+00
      -6     2     1     2     0   512  1.285397318E+02  6.595031296E+01 -2.978704809E+02  3.730720169E+02  1.720000000E+02  0.00000E+00  9.000E+00
      24     2     3     3     0     0  2.404385487E+01 -2.533672635E+01  4.762660554E+01  1.003673067E+02  8.114952889E+01  0.00000E+00  9.000E+00
     -24     2     4     4     0     0  1.209745005E+02 -3.671289430E+00 -2.493579637E+02  2.877465983E+02  7.726838053E+01  0.00000E+00  9.000E+00
     -11     1     5     5     0     0  1.801073123E+01 -1.153621726E+01 -2.107915961E+01  3.003001362E+01  7.152557373E-07  0.00000E+00  9.000E+00
      12     1     5     5     0     0  6.033123641E+00 -1.380050909E+01  6.870576516E+01  7.033729308E+01  1.651812370E-06  0.00000E+00  9.000E+00
      13     1     6     6     0     0  9.712006632E+01 -3.082363811E+01 -1.443279423E+02  1.766718961E+02  0.000000000E+00  0.00000E+00  9.000E+00
     -14     1     6     6     0     0  2.385443419E+01  2.715234869E+01 -1.050300214E+02  1.110747021E+02  1.348699152E-06  0.00000E+00  9.000E+00
       5     1     3     3   502     0 -9.162466803E+01  2.829761024E+01  3.674244175E+01  1.028027435E+02  4.750000000E+00  0.00000E+00  9.000E+00
      -5     1     4     4     0   512  7.565231304E+00  6.962160239E+01 -4.851251723E+01  8.532541867E+01  4.750000000E+00  0.00000E+00  9.000E+00
       1     1     1     2   511     0 -6.095891865E+01 -6.891119685E+01  8.324322579E+00  9.237985257E+01  5.057621821E-07  0.00000E+00  9.000E+00
</event>
<event>
     13  10001  1.00000E+00  1.34079E+02 -1.00000E+00  1.20534E-01
      -1    -1     0     0     0   512  0.000000000E+00  0.000000000E+00  6.075385414E+01  6.075385414E+01  0.000000000E+00  0.00000E+00  9.000E+00
      21    -1     0     0   502   513  0.000000000E+00  0.000000000E+00 -1.330606344E+03  1.330606344E+03  0.000000000E+00  0.00000E+00  9.000E+00
       6     2     1     2   502     0  6.914372456E+01  2.578743213E+01 -4.926135063E+02  5.269705047E+02  1.720000000E+02  0.00000E+00  9.000E+00
      -6     2     1     2     0   512 -3.919561718E+01 -1.564790217E+02 -4.038136416E+02  4.676231793E+02  1.720000000E+02  0.00000E+00  9.000E+00
      24     2     3     3     0     0  6.284099704E+01  5.862287025E+01 -4.747121226E+02  4.887486209E+02  7.834528186E+01  0.00000E+00  9.000E+00
     -24     2     4     4     0     0 -2.671274939E+01 -1.851822587E+02 -3.587515368E+02  4.125518292E+02  8.056244008E+01  0.00000E+00  9.000E+00
     -11     1     5     5     0     0  6.608814202E+01  1.800998678E+01 -2.091986645E+02  2.201274253E+02  2.697398305E-06  0.00000E+00  9.000E+00
      12     1     5     5     0     0 -3.247144980E+00  4.061288347E+01 -2.655134581E+02  2.686211955E+02  5.394796609E-06  0.00000E+00  9.000E+00
      13     1     6     6     0     0  2.709712685E+01 -6.966782536E+01 -1.576448811E+02  1.744699651E+02  3.303624740E-06  0.00000E+00  9.000E+00
     -14     1     6     6     0     0 -5.380987624E+01 -1.155144333E+02 -2.011066557E+02  2.380818642E+02  0.000000000E+00  0.00000E+00  9.000E+00
       5     1     3     3   502     0  6.302727516E+00 -3.283543812E+01 -1.790138362E+01  3.822188386E+01  4.750000000E+00  0.00000E+00  9.000E+00
      -5     1     4     4     0   512 -1.248286779E+01  2.870323700E+01 -4.506210485E+01  5.507135004E+01  4.750000000E+00  0.00000E+00  9.000E+00
      -1     1     1     2     0   513 -2.994810738E+01  1.306915895E+02 -3.734253419E+02  3.967665141E+02  5.394796609E-06  0.00000E+00  9.000E+00
</event>
<event>
     13  10001  1.00000E+00  3.48869E+01 -1.00000E+00  1.52110E-01
       1    -1     0     0   503     0  0.000000000E+00  0.000000000E+00  2.900893678E+02  2.900893678E+02  0.000000000E+00  0.00000E+00  9.000E+00
      21    -1     0     0   502   503  0.000000000E+00  0.000000000E+00 -2.104885364E+02  2.104885364E+02  0.000000000E+00  0.00000E+00  9.000E+00
       6     2     1     2   502     0 -1.064625048E+02  5.162595892E+01 -5.606305605E-01  2.087673798E+02  1.720000000E+02  0.00000E+00  9.000E+00
      -6     2     1     2     0   504  1.056502107E+02 -1.674846953E+01 -1.988464936E+00  2.025597004E+02  1.720000000E+02  0.00000E+00  9.000E+00
      24     2     3     3     0     0 -4.468806789E+01  9.618082273E+01 -7.730551730E+00  1.321176100E+02  7.840616918E+01  0.00000E+00  9.000E+00
     -24     2     4     4     0     0  1.347087239E+02 -3.918800073E+01  1.364544928E+01  1.623737387E+02  8.060330668E+01  0.00000E+00  9.000E+00
     -11     1     5     5     0     0  6.619868626E+00  5.561692220E+01 -2.934694878E+01  6.323217613E+01  4.768371582E-07  0.00000E+00  9.000E+00
      12     1     5     5     0     0 -5.130793652E+01  4.056390053E+01  2.161639705E+01  6.888543385E+01  1.410503336E-06  0.00000E+00  9.000E+00
      13     1     6     6     0     0  5.819286588E+01 -3.025961275E+01 -3.184282072E+01  7.291103506E+01  2.500555153E-06  0.00000E+00  9.000E+00
     -14     1     6     6     0     0  7.651585798E+01 -8.928387981E+00  4.548827000E+01  8.946270363E+01  2.861022949E-06  0.00000E+00  9.000E+00
       5     1     3     3   502     0 -6.177443690E+01 -4.455486380E+01  7.169921170E+00  7.664976981E+01  4.750000000E+00  0.00000E+00  9.000E+00
      -5     1     4     4     0   504 -2.905851317E+01  2.243953120E+01 -1.563391422E+01  4.018596175E+01  4.750000000E+00  0.00000E+00  9.000E+00
       1     1     1     2   504     0  8.122941091E-01 -3.487748939E+01  8.214992690E+01  8.925082396E+01  0.000000000E+00  0.00000E+00  9.000E+00
</event>
<event>
     13  10001  1.00000E+00  2.35088E+01 -1.00000E+00  1.64887E-01
      21    -1     0     0   502   503  0.000000000E+00  0.000000000E+00  1.589141884E+02  1.589141884E+02  0.000000000E+00  0.00000E+00  9.000E+00
       2    -1     0     0   503     0  0.000000000E+00  0.000000000E+00 -5.936282401E+02  5.936282401E+02  0.000000000E+00  0.00000E+00  9.000E+00
       6     2     1     2   502     0 -1.339957283E+02 -2.395677569E+01 -7.892860686E+01  2.331147942E+02  1.720000000E+02  0.00000E+00  9.000E+00
      -6     2     1     2     0   504  1.492482257E+02  6.067561533E+00 -7.820956486E+01  2.408580167E+02  1.720000000E+02  0.00000E+00  9.000E+00
      24     2     3     3     0     0 -1.255657867E+02 -1.669575228E+00  1.951495867E+00  1.486639995E+02  7.954635202E+01  0.00000E+00  9.000E+00
     -24     2     4     4     0     0  6.533750346E+01  4.677417747E+01  6.825912849E+00  1.145582429E+02  8.136451868E+01  0.00000E+00  9.000E+00
     -11     1     5     5     0     0 -7.909292161E+01  2.441816035E+01  3.048544950E+01  8.821167403E+01  9.536743164E-07  0.00000E+00  9.000E+00
      12     1     5     5     0     0 -4.647286511E+01 -2.608773558E+01 -2.853395363E+01  6.045232542E+01  1.066240300E-06  0.00000E+00  9.000E+00
      13     1     6     6     0     0 -5.027073489E+00  7.621417068E+00 -2.603332963E+01  2.758789078E+01  0.000000000E+00  0.00000E+00  9.000E+00
     -14     1     6     6     0     0  7.036457695E+01  3.915276041E+01  3.285924248E+01  8.697035215E+01  1.066240300E-06  0.00000E+00  9.000E+00
       5     1     3     3   502     0 -8.429941576E+00 -2.228720046E+01 -8.088010273E+01  8.445079477E+01  4.750000000E+00  0.00000E+00  9.000E+00
      -5     1     4     4     0   504  8.391072224E+01 -4.070661594E+01 -8.503547771E+01  1.262997738E+02  4.750000000E+00  0.00000E+00  9.000E+00
       2     1     1     2   504     0 -1.525249741E+01  1.788921416E+01 -2.775758800E+02  2.785696175E+02  5.394796609E-06  0.00000E+00  9.000E+00
</event>
<event>
     13  10001  1.00000E+00  1.15654E+02 -1.00000E+00  1.23331E-01
       3    -1     0     0   503     0  0.000000000E+00  0.000000000E+00  2.644874522E+02  2.644874522E+02  0.000000000E+00  0.00000E+00  9.000E+00
      21    -1     0     0   502   503  0.000000000E+00  0.000000000E+00 -9.618037272E+02  9.618037272E+02  0.000000000E+00  0.00000E+00  9.000E+00
       6     2     1     2   502     0  1.832852739E+02  6.750454187E+01 -4.468261152E+02  5.170956701E+02  1.720000000E+02  0.00000E+00  9.000E+00
      -6     2     1     2     0   504 -1.114405940E+02 -1.581367032E+02 -4.263090492E+02  4.987480609E+02  1.720000000E+02  0.00000E+00  9.000E+00
      24     2     3     3     0     0  1.841396538E+02  9.692854785E+00 -3.632189869E+02  4.153330270E+02  8.106865820E+01  0.00000E+00  9.000E+00
     -24     2     4     4     0     0 -1.750586132E+01 -1.166068332E+02 -1.618649070E+02  2.150197914E+02  7.829210586E+01  0.00000E+00  9.000E+00
     -11     1     5     5     0     0  9.626081466E+01 -1.241775688E+00 -1.054886189E+02  1.428129377E+02  2.336015456E-06  0.00000E+00  9.000E+00
      12     1     5     5     0     0  8.787883913E+01  1.093463047E+01 -2.577303679E+02  2.725200893E+02  5.394796609E-06  0.00000E+00  9.000E+00
      13     1     6     6     0     0  2.273874854E+01 -6.789541717E+01 -1.182650887E+02  1.382514722E+02  1.348699152E-06  0.00000E+00  9.000E+00
     -14     1     6     6     0     0 -4.024460986E+01 -4.871141607E+01 -4.359981826E+01  7.676831919E+01  8.259061849E-07  0.00000E+00  9.000E+00
       5     1     3     3   502     0 -8.543798563E-01  5.781168708E+01 -8.360712827E+01  1.017626431E+02  4.750000000E+00  0.00000E+00  9.000E+00
      -5     1     4     4     0   504 -9.393473263E+01 -4.152986994E+01 -2.644441422E+02  2.837282695E+02  4.750000000E+00  0.00000E+00  9.000E+00
       3     1     1     2   504     0 -7.184467998E+01  9.063216131E+01  1.758188893E+02  2.104474484E+02  4.672030912E-06  0.00000E+00  9.000E+00
</event>
<event>
     13  10001  1.00000E+00  1.44937E+01 -1.00000E+00  1.83935E-01
      21    -1     0     0   511   512  0.000000000E+00  0.000000000E+00  7.963699619E+01  7.963699619E+01  0.000000000E+00  0.00000E+00  9.000E+00
       1    -1     0     0   502     0  0.000000000E+00  0.000000000E+00 -1.131305498E+03  1.131305498E+03  0.000000000E+00  0.00000E+00  9.000E+00
       6     2     1     2   502     0  1.264975431E+02  1.371715471E+02 -8.253607301E+02  8.634940629E+02  1.720000000E+02  0.00000E+00  9.000E+00
      -6     2     1     2     0   512 -1.180545710E+02 -1.253909194E+02 -2.271534360E+02  3.329300946E+02  1.720000000E+02  0.00000E+00  9.000E+00
      24     2     3     3     0     0  1.400745352E+02  1.499532776E+02 -6.360938864E+02  6.732515650E+02  8.090350163E+01  0.00000E+00  9.000E+00
     -24     2     4     4     0     0 -3.880165499E+01  1.804669340E+01 -5.920226953E+01  9.822702627E+01  6.566877798E+01  0.00000E+00  9.000E+00
     -11     1     5     5     0     0  1.314594615E+00  8.419245627E+00 -1.216051744E+02  1.219033646E+02  3.568322551E-06  0.00000E+00  9.000E+00
      12     1     5     5     0     0  1.387599406E+02  1.415340320E+02 -5.144887120E+02  5.513482004E+02  7.629394531E-06  0.00000E+00  9.000E+00
      13     1     6     6     0     0 -1.146381129E+01 -1.410020733E+01  7.202862166E+00  1.954778861E+01  4.460403188E-07  0.00000E+00  9.000E+00
     -14     1     6     6     0     0 -2.733784369E+01  3.214690073E+01 -6.640513170E+01  7.867923767E+01  9.536743164E-07  0.00000E+00  9.000E+00
       5     1     3     3   502     0 -1.357699216E+01 -1.278173051E+01 -1.892668438E+02  1.902424979E+02  4.750000000E+00  0.00000E+00  9.000E+00
      -5     1     4     4     0   512 -7.925291597E+01 -1.434376128E+02 -1.679511664E+02  2.347030683E+02  4.750000000E+00  0.00000E+00  9.000E+00
       1     1     1     2   511     0 -8.442972126E+00 -1.178062770E+01  8.456638653E-01  1.451833719E+01  2.931403454E-07  0.00000E+00  9.000E+00
</event>
<event>
     13  10001  1.00000E+00  4.91199E+01 -1.00000E+00  1.42574E-01
       2    -1     0     0   503     0  0.000000000E+00  0.000000000E+00  1.157639695E+03  1.157639695E+03  0.000000000E+00  0.00000E+00  9.000E+00
      21    -1     0     0   502   503  0.000000000E+00  0.000000000E+00 -9.374895911E+01  9.374895911E+01  0.000000000E+00  0.00000E+00  9.000E+00
       6     2     1     2   502     0  1.609722353E+01 -1.006781482E+01  3.247288888E+02  3.679583301E+02  1.720000000E+02  0.00000E+00  9.000E+00
      -6     2     1     2     0   504  2.892001763E+01  2.972013411E+01  3.852544515E+01  1.810741940E+02  1.720000000E+02  0.00000E+00  9.000E+00
      24     2     3     3     0     0  4.665586222E+01  4.940726219E+01  1.702871890E+02  1.995958749E+02  7.888561035E+01  0.00000E+00  9.000E+00
     -24     2     4     4     0     0  2.323876040E+01  1.854638788E+01 -4.378227320E+01  9.768203432E+01  8.210288603E+01  0.00000E+00  9.000E+00
     -11     1     5     5     0     0  1.003203077E+01  6.134275801E+01  7.905161467E+01  1.005620872E+02  9.536743164E-07  0.00000E+00  9.000E+00
      12     1     5     5     0     0  3.662383145E+01 -1.193549582E+01  9.123557429E+01  9.903378770E+01  0.000000000E+00  0.00000E+00  9.000E+00
      13     1     6     6     0     0  3.923546787E+01  3.880736340E+01 -1.154073771E+01  5.637926941E+01  9.973764736E-07  0.00000E+00  9.000E+00
     -14     1     6     6     0     0 -1.599670746E+01 -2.026097552E+01 -3.224153548E+01  4.130276491E+01  1.966049969E-06  0.00000E+00  9.000E+00
       5     1     3     3   502     0 -3.055863868E+01 -5.947507701E+01  1.544416998E+02  1.683624552E+02  4.750000000E+00  0.00000E+00  9.000E+00
      -5     1     4     4     0   504  5.681257229E+00  1.117374623E+01  8.230771834E+01  8.339215963E+01  4.750000000E+00  0.00000E+00  9.000E+00
       2     1     1     2   504     0 -4.501724117E+01 -1.965231929E+01  7.006364024E+02  7.023561304E+02  0.000000000E+00  0.00000E+00  9.000E+00
</event>
<event>
     13  10001  1.00000E+00  6.54800E+01 -1.00000E+00  1.35462E-01
      21    -1     0     0   511   504  0.000000000E+00  0.000000000E+00  1.248838264E+02  1.248838264E+02  0.000000000E+00  0.00000E+00  9.000E+00
      21    -1     0     0   502   503  0.000000000E+00  0.000000000E+00 -4.720110785E+02  4.720110785E+02  0.000000000E+00  0.00000E+00  9.000E+00
       6     2     1     2   502     0  1.945188189E+01  3.731941807E+01 -1.929981220E+02  2.619224881E+02  1.720000000E+02  0.00000E+00  9.000E+00
      -6     2     1     2     0   504 -3.555204451E+01 -1.007891863E+02 -1.735269998E+02  2.666796348E+02  1.720000000E+02  0.00000E+00  9.000E+00
      24     2     3     3     0     0  4.536376984E+01  2.192507737E+00 -1.977908607E+02  2.177539630E+02  7.894862326E+01  0.00000E+00  9.000E+00
     -24     2     4     4     0     0 -4.821202429E+00 -1.135877354E+02 -1.838983654E+02  2.314899313E+02  8.272582337E+01  0.00000E+00  9.000E+00
     -11     1     5     5     0     0  6.026893806E+01  2.065284082E+01 -1.679665275E+02  1.796430880E+02  1.907348633E-06  0.00000E+00  9.000E+00
      12     1     5     5     0     0 -1.490516821E+01 -1.846033308E+01 -2.982433322E+01  3.811087495E+01  8.259061849E-07  0.00000E+00  9.000E+00
      13     1     6     6     0     0 -1.964793335E+01 -9.876502557E+01 -1.848536750E+02  2.105028568E+02  3.814697266E-06  0.00000E+00  9.000E+00
     -14     1     6     6     0     0  1.482673092E+01 -1.482270984E+01  9.553096355E-01  2.098707443E+01  8.182759352E-07  0.00000E+00  9.000E+00
       5     1     3     3   502     0 -2.591188795E+01  3.512691033E+01  4.792738690E+00  4.416852511E+01  4.750000000E+00  0.00000E+00  9.000E+00
      -5     1     4     4     0   504 -3.073084209E+01  1.279854906E+01  1.037136555E+01  3.518970356E+01  4.750000000E+00  0.00000E+00  9.000E+00
      21     1     1     2   511   503  1.610016262E+01  6.346976828E+01  1.939786979E+01  6.829278201E+01  7.907449699E-07  0.00000E+00  9.000E+00
</event>
<event>
     13  10001  1.00000E+00  1.78060E+01 -1.00000E+00  1.75298E-01
      21    -1     0     0   502   503  0.000000000E+00  0.000000000E+00  8.440469409E+02  8.440469409E+02  0.000000000E+00  0.00000E+00  9.000E+00
      21    -1     0     0   512   504  0.000000000E+00  0.000000000E+00 -2.117412982E+02  2.117412982E+02  0.000000000E+00  0.00000E+00  9.000E+00
       6     2     1     2   502     0  9.594413915E+01  1.654094314E+02  3.798630087E+01  2.599856090E+02  1.720000000E+02  0.00000E+00  9.000E+00
      -6     2     1     2     0   504 -1.122661394E+02 -1.725259888E+02  6.680820564E+02  7.199212019E+02  1.720000000E+02  0.00000E+00  9.000E+00
      24     2     3     3     0     0  2.175021541E+01  2.743459509E+01 -2.738148706E+01  9.017010920E+01  7.845491623E+01  0.00000E+00  9.000E+00
     -24     2     4     4     0     0 -2.490317550E+01 -1.274866564E+02  5.206063274E+02  5.426291207E+02  8.088509592E+01  0.00000E+00  9.000E+00
     -11     1     5     5     0     0 -1.280254329E+01  9.646778303E+00 -4.480069404E+01  4.758221971E+01  1.168007728E-06  0.00000E+00  9.000E+00
      12     1     5     5     0     0  3.455275870E+01  1.778781679E+01  1.741920697E+01  4.258788949E+01  4.768371582E-07  0.00000E+00  9.000E+00
      13     1     6     6     0     0  1.680721103E+01 -9.091671244E+01  2.537744870E+02  2.700922457E+02  3.814697266E-06  0.00000E+00  9.000E+00
     -14     1     6     6     0     0 -4.171038653E+01 -3.656994392E+01  2.668318405E+02  2.725368750E+02  5.394796609E-06  0.00000E+00  9.000E+00
       5     1     3     3   502     0  7.419392374E+01  1.379748363E+02  6.536778794E+01  1.698154998E+02  4.750000000E+00  0.00000E+00  9.000E+00
      -5     1     4     4     0   504 -8.736296393E+01 -4.503933242E+01  1.474757290E+02  1.772920812E+02  4.750000000E+00  0.00000E+00  9.000E+00
      21     1     1     2   512   503  1.632200028E+01  7.116557404E+00 -7.376271459E+01  7.588142820E+01  2.132480600E-06  0.00000E+00  9.000E+00
</event>
<event>
     13  10001  1.00000E+00  7.69556E+01 -1.00000E+00  1.31776E-01
      21    -1     0     0   502   503  0.000000000E+00  0.000000000E+00  7.698633659E+01  7.698633659E+01  0.000000000E+00  0.00000E+00  9.000E+00
       2    -1     0     0   503     0  0.000000000E+00  0.000000000E+00 -1.862404447E+03  1.862404447E+03  0.000000000E+00  0.00000E+00  9.000E+00
       6     2     1     2   502     0  7.714962352E+01 -8.289369986E+01 -7.311051093E+02  7.595538893E+02  1.720000000E+02  0.00000E+00  9.000E+00
      -6     2     1     2     0   504 -2.546503838E+01  1.399100795E+02 -1.425162376E+02  2.647983695E+02  1.720000000E+02  0.00000E+00  9.000E+00
      24     2     3     3     0     0  2.241292905E+01  1.598962997E+01 -3.342922588E+02  3.469317626E+02  8.861335073E+01  0.00000E+00  9.000E+00
     -24     2     4     4     0     0  2.089882454E+00  1.298662157E+02 -3.926548925E+01  1.573580028E+02  7.968789623E+01  0.00000E+00  9.000E+00
     -11     1     5     5     0     0  2.779406619E+01 -2.424906286E+00 -2.629694210E+01  3.833952856E+01  1.507891493E-06  0.00000E+00  9.000E+00
      12     1     5     5     0     0 -5.381137140E+00  1.841453625E+01 -3.079953167E+02  3.085922340E+02  7.629394531E-06  0.00000E+00  9.000E+00
      13     1     6     6     0     0  3.824299078E+01  5.739550414E+01 -4.177362549E+00  6.909573502E+01  2.119948774E-06  0.00000E+00  9.000E+00
     -14     1     6     6     0     0 -3.615310833E+01  7.247071161E+01 -3.508812670E+01  8.826226781E+01  8.259061849E-07  0.00000E+00  9.000E+00
       5     1     3     3   502     0  5.473669446E+01 -9.888332983E+01 -3.968128506E+02  4.126221268E+02  4.750000000E+00  0.00000E+00  9.000E+00
      -5     1     4     4     0   504 -2.755492084E+01  1.004386372E+01 -1.032507483E+02  1.074403667E+02  4.750000000E+00  0.00000E+00  9.000E+00
       2     1     1     2   504     0 -5.168458513E+01 -5.701637960E+01 -9.117967635E+02  9.150385248E+02  1.078959322E-05  0.00000E+00  9.000E+00
</event>
<event>
     13  10001  1.00000E+00  6.94113E+01 -1.00000E+00  1.34107E-01
      21    -1     0     0   502   503  0.000000000E+00  0.000000000E+00  1.570423277E+02  1.570423277E+02  0.000000000E+00  0.00000E+00  9.000E+00
       2    -1     0     0   503     0  0.000000000E+00  0.000000000E+00 -1.014297754E+03  1.014297754E+03  0.000000000E+00  0.00000E+00  9.000E+00
       6     2     1     2   502     0  9.519625177E+01  1.775286441E+02 -1.803829950E+02  3.204696096E+02  1.720000000E+02  0.00000E+00  9.000E+00
      -6     2     1     2     0   504 -4.239408325E+01 -1.324747027E+02 -5.876210660E+01  2.288750540E+02  1.720000000E+02  0.00000E+00  9.000E+00
      24     2     3     3     0     0  1.197389540E+02  1.312427735E+02 -8.870628095E+01  2.147723606E+02  8.183080048E+01  0.00000E+00  9.000E+00
     -24     2     4     4     0     0 -2.634736363E+01 -1.609202838E+02 -2.850017884E+01  1.840978827E+02  8.056208117E+01  0.00000E+00  9.000E+00
     -11     1     5     5     0     0  7.385176455E+00  2.737625544E+00 -3.492905696E+01  3.580606715E+01  8.259061849E-07  0.00000E+00  9.000E+00
      12     1     5     5     0     0  1.123537776E+02  1.285051479E+02 -5.377722400E+01  1.789662935E+02  3.568322551E-06  0.00000E+00  9.000E+00
      13     1     6     6     0     0  2.057007872E+01 -9.554638520E+01  2.753032691E+00  9.777432716E+01  2.788866870E-06  0.00000E+00  9.000E+00
     -14     1     6     6     0     0 -4.691744235E+01 -6.537389861E+01 -3.125321153E+01  8.632355557E+01  9.536743164E-07  0.00000E+00  9.000E+00
       5     1     3     3   502     0 -2.454270227E+01  4.628587061E+01 -9.167671402E+01  1.056972490E+02  4.750000000E+00  0.00000E+00  9.000E+00
      -5     1     4     4     0   504 -1.604671962E+01  2.844558106E+01 -3.026192777E+01  4.477717125E+01  4.750000000E+00  0.00000E+00  9.000E+00
       2     1     1     2   504     0 -5.280216852E+01 -4.505394133E+01 -6.181103248E+02  6.219954182E+02  7.629394531E-06  0.00000E+00  9.000E+00
</event>
<event>
     13  10001  1.00000E+00  9.54070E+01 -1.00000E+00  1.27178E-01
      21    -1     0     0   503   504  0.000000000E+00  0.000000000E+00  1.317252290E+03  1.317252290E+03  0.000000000E+00  0.00000E+00  9.000E+00
       2    -1     0     0   502     0  0.000000000E+00  0.000000000E+00 -1.291397551E+02  1.291397551E+02  0.000000000E+00  0.00000E+00  9.000E+00
       6     2     1     2   502     0  8.630619037E+01 -1.900352006E+02  2.389134905E+02  3.608681088E+02  1.720000000E+02  0.00000E+00  9.000E+00
      -6     2     1     2     0   504 -3.376581895E+01  1.103984865E+02  9.665955711E+02  9.885438556E+02  1.720000000E+02  0.00000E+00  9.000E+00
      24     2     3     3     0     0  6.002881618E+01 -9.302696333E+01  5.809886594E+01  1.539439935E+02  8.980980040E+01  0.00000E+00  9.000E+00
     -24     2     4     4     0     0  2.431280097E+01  3.011375164E+01  6.712591287E+02  6.769913857E+02  7.893394841E+01  0.00000E+00  9.000E+00
     -11     1     5     5     0     0  3.568823486E+01 -4.994487217E+01 -1.728334227E+01  6.377189258E+01  1.980453459E-06  0.00000E+00  9.000E+00
      12     1     5     5     0     0  2.434058131E+01 -4.308209116E+01  7.538220821E+01  9.017210096E+01  1.348699152E-06  0.00000E+00  9.000E+00
      13     1     6     6     0     0 -1.161641997E+01 -2.160427476E+01  2.188776586E+02  2.202478498E+02  2.697398305E-06  0.00000E+00  9.000E+00
     -14     1     6     6     0     0  3.592922094E+01  5.171802640E+01  4.523814700E+02  4.567435359E+02  0.000000000E+00  0.00000E+00  9.000E+00
       5     1     3     3   502     0  2.627737419E+01 -9.700823729E+01  1.808146246E+02  2.069241152E+02  4.750000000E+00  0.00000E+00  9.000E+00
      -5     1     4     4     0   504 -5.807861992E+01  8.028473484E+01  2.953364424E+02  3.115524698E+02  4.750000000E+00  0.00000E+00  9.000E+00
       2     1     1     2   503     0 -5.254037142E+01  7.963671414E+01 -1.739652699E+01  9.698008053E+01  2.790617922E-06  0.00000E+00  9.000E+00
</event>
<event>
     13  10001  1.00000E+00  1.63531E+02 -1.00000E+00  1.16974E-01
       2    -1     0     0   502     0  0.000000000E+00  0.000000000E+00  1.169813923E+03  1.169813923E+03  0.000000000E+00  0.00000E+00  9.000E+00
      21    -1     0     0   503   504  0.000000000E+00  0.000000000E+00 -1.216028383E+02  1.216028383E+02  0.000000000E+00  0.00000E+00  9.000E+00
       6     2     1     2   502     0  6.335213350E+01 -8.240592087E+01  2.302930223E+02  3.056519340E+02  1.720000000E+02  0.00000E+00  9.000E+00
      -6     2     1     2     0   504  1.733547997E+01  2.246445648E+02  2.008749864E+02  3.474197166E+02  1.720000000E+02  0.00000E+00  9.000E+00
      24     2     3     3     0     0  6.049755858E+01 -8.164895960E+01  7.787790572E+01  1.531342240E+02  8.401556500E+01  0.00000E+00  9.000E+00
     -24     2     4     4     0     0  1.939642975E+01  2.461825072E+02  1.740365780E+02  3.126203899E+02  8.037866235E+01  0.00000E+00  9.000E+00
     -11     1     5     5     0     0  8.142144566E+00 -1.045959911E+01  6.193678563E+01  6.333927017E+01  9.536743164E-07  0.00000E+00  9.000E+00
      12     1     5     5     0     0  5.235541401E+01 -7.118936049E+01  1.594112009E+01  8.979495383E+01  1.192092896E-06  0.00000E+00  9.000E+00
      13     1     6     6     0     0 -6.534758066E-01  8.592468417E+01  1.747798172E+01  8.768670495E+01  2.384185791E-07  0.00000E+00  9.000E+00
     -14     1     6     6     0     0  2.004990556E+01  1.602578230E+02  1.565585963E+02  2.249336849E+02  3.303624740E-06  0.00000E+00  9.000E+00
       5     1     3     3   502     0  2.854574918E+00 -7.569612683E-01  1.524151166E+02  1.525177100E+02  4.750000000E+00  0.00000E+00  9.000E+00
      -5     1     4     4     0   504 -2.060949777E+00 -2.153794241E+01  2.683840838E+01  3.479932674E+01  4.750000000E+00  0.00000E+00  9.000E+00
       2     1     1     2   503     0 -8.068761347E+01 -1.422386439E+02  6.170430764E+02  6.383451112E+02  7.629394531E-06  0.00000E+00  9.000E+00
</event>
<event>
     13  10001  1.00000E+00  1.86527E+00 -1.00000E+00  4.03899E-01
      -2    -1     0     0     0   511  0.000000000E+00  0.000000000E+00  1.249696671E+02  1.249696671E+02  0.000000000E+00  0.00000E+00  9.000E+00
       2    -1     0     0   502     0  0.000000000E+00  0.000000000E+00 -2.951901503E+02  2.951901503E+02  0.000000000E+00  0.00000E+00  9.000E+00
       6     2     1     2   502     0 -5.977762923E+01 -3.255323772E+01 -1.054138130E+02  2.129064354E+02  1.720000000E+02  0.00000E+00  9.000E+00
      -6     2     1     2     0   512  5.895787633E+01  3.422872076E+01 -7.296412117E+01  1.988853928E+02  1.720000000E+02  0.00000E+00  9.000E+00
      24     2     3     3     0     0  1.993649354E+01 -4.047825254E+01 -2.248780649E+01  9.750958840E+01  8.346535620E+01  0.00000E+00  9.000E+00
     -24     2     4     4     0     0  2.706810883E+01 -4.648750253E+01 -2.790835796E+01  1.009841657E+02  8.077843075E+01  0.00000E+00  9.000E+00
     -11     1     5     5     0     0  1.326135437E+01  6.838090276E+00 -4.299486220E+01  4.551023154E+01  1.066240300E-06  0.00000E+00  9.000E+00
      12     1     5     5     0     0  6.675139170E+00 -4.731634281E+01  2.050705572E+01  5.199935687E+01  1.488923549E-06  0.00000E+00  9.000E+00
      13     1     6     6     0     0  1.757101985E+01  2.137399872E+01 -2.051791826E+00  2.774524121E+01  5.144678504E-07  0.00000E+00  9.000E+00
     -14     1     6     6     0     0  9.497088976E+00 -6.786150125E+01 -2.585656613E+01  7.323892451E+01  1.994752947E-06  0.00000E+00  9.000E+00
       5     1     3     3   502     0 -7.971412277E+01  7.925014815E+00 -8.292600652E+01  1.153968470E+02  4.750000000E+00  0.00000E+00  9.000E+00
      -5     1     4     4     0   512  3.188976750E+01  8.071622329E+01 -4.505576321E+01  9.790122712E+01  4.750000000E+00  0.00000E+00  9.000E+00
      21     1     1     2   512   511  8.197528969E-01 -1.675483036E+00  8.157450956E+00  8.367989264E+00  0.000000000E+00  0.00000E+00  9.000E+00
</event>
<event>
     13  10001  1.00000E+00  4.52433E+01 -1.00000E+00  1.44752E-01
      21    -1     0     0   503   504  0.000000000E+00  0.000000000E+00  1.313201580E+03  1.313201580E+03  0.000000000E+00  0.00000E+00  9.000E+00
      21    -1     0     0   502   513  0.000000000E+00  0.000000000E+00 -7.778598808E+01  7.778598808E+01  0.000000000E+00  0.00000E+00  9.000E+00
       6     2     1     2   502     0  1.519312107E+01 -3.260187955E+01  6.935671094E+02  7.154809912E+02  1.720000000E+02  0.00000E+00  9.000E+00
      -6     2     1     2     0   504  2.457917610E+01  1.103530981E+01  5.865877403E+02  6.118783303E+02  1.720000000E+02  0.00000E+00  9.000E+00
      24     2     3     3     0     0  6.209874192E+01 -5.119907611E+01  3.353768032E+02  3.537229907E+02  7.851595278E+01  0.00000E+00  9.000E+00
     -24     2     4     4     0     0 -2.797030363E+01 -3.857398874E+01  4.143843546E+02  4.250653251E+02  8.182815427E+01  0.00000E+00  9.000E+00
     -11     1     5     5     0     0  3.651069039E+01 -5.274577978E+01  3.135796588E+02  3.200739761E+02  0.000000000E+00  0.00000E+00  9.000E+00
      12     1     5     5     0     0  2.558805153E+01  1.546703666E+00  2.179714445E+01  3.364901453E+01  1.410503336E-06  0.00000E+00  9.000E+00
      13     1     6     6     0     0  2.650255599E+01 -2.916867939E+01  1.720338521E+02  1.764903499E+02  3.303624740E-06  0.00000E+00  9.000E+00
     -14     1     6     6     0     0 -5.447285962E+01 -9.405309348E+00  2.423505025E+02  2.485749753E+02  3.814697266E-06  0.00000E+00  9.000E+00
       5     1     3     3   502     0 -4.690562085E+01  1.859719656E+01  3.581903062E+02  3.617580006E+02  4.750000000E+00  0.00000E+00  9.000E+00
      -5     1     4     4     0   504  5.254947972E+01  4.960929855E+01  1.722033857E+02  1.868130051E+02  4.750000000E+00  0.00000E+00  9.000E+00
      21     1     1     2   503   513 -3.977229717E+01  2.156656974E+01 -4.473925793E+01  6.362824650E+01  2.336015456E-06  0.00000E+00  9.000E+00
</event>
<event>
     13  10001  1.00000E+00  3.51658E+01 -1.00000E+00  1.51873E-01
      21    -1     0     0   502   511  0.000000000E+00  0.000000000E+00  3.977828325E+02  3.977828325E+02  0.000000000E+00  0.00000E+00  9.000E+00
      21    -1     0     0   503   504  0.000000000E+00  0.000000000E+00 -2.614127432E+02  2.614127432E+02  0.000000000E+00  0.00000E+00  9.000E+00
       6     2     1     2   502     0 -2.638237913E+01  1.929659577E+02  1.311606385E+02  2.910652914E+02  1.720000000E+02  0.00000E+00  9.000E+00
      -6     2     1     2     0   504  7.828890462E+00 -1.630928502E+02 -9.986472894E+01  2.573276771E+02  1.720000000E+02  0.00000E+00  9.000E+00
      24     2     3     3     0     0 -7.779352247E+01  1.146599896E+02  1.112912350E+02  1.951888814E+02  8.071068752E+01  0.00000E+00  9.000E+00
     -24     2     4     4     0     0 -4.150393890E+01 -1.376265541E+02 -2.957012246E+01  1.676273176E+02  8.099926010E+01  0.00000E+00  9.000E+00
     -11     1     5     5     0     0 -2.466792851E+01  9.913416147E+01  5.408771375E+01  1.155922551E+02  2.780414531E-06  0.00000E+00  9.000E+00
      12     1     5     5     0     0 -5.312559396E+01  1.552582818E+01  5.720352124E+01  7.959662629E+01  1.348699152E-06  0.00000E+00  9.000E+00
      13     1     6     6     0     0 -3.904115238E+01 -8.639489745E+01 -5.581029884E+01  1.100139961E+02  2.236564522E-06  0.00000E+00  9.000E+00
     -14     1     6     6     0     0 -2.462786522E+00 -5.123165661E+01  2.624017638E+01  5.761332149E+01  8.259061849E-07  0.00000E+00  9.000E+00
       5     1     3     3   502     0  5.141114334E+01  7.830596809E+01  1.986940352E+01  9.587640999E+01  4.750000000E+00  0.00000E+00  9.000E+00
      -5     1     4     4     0   504  4.933282937E+01 -2.546629613E+01 -7.029460648E+01  8.970035949E+01  4.750000000E+00  0.00000E+00  9.000E+00
      21     1     1     2   503   511  1.855348867E+01 -2.987310754E+01  1.050741797E+02  1.108026071E+02  0.000000000E+00  0.00000E+00  9.000E+00
</event>
<event>
     13  10001  1.00000E+00  1.45965E+02 -1.00000E+00  1.18984E-01
       2    -1     0     0   502     0  0.000000000E+00  0.000000000E+00  7.558894927E+02  7.558894927E+02  0.000000000E+00  0.00000E+00  9.000E+00
      -2    -1     0     0     0   513  0.000000000E+00  0.000000000E+00 -3.264575646E+02  3.264575646E+02  0.000000000E+00  0.00000E+00  9.000E+00
       6     2     1     2   502     0 -6.041056566E+01 -3.718680287E+01 -1.731336266E+02  2.541486719E+02  1.720000000E+02  0.00000E+00  9.000E+00
      -6     2     1     2     0   512  7.188624322E+01  1.827000611E+02  6.279537881E+02  6.800418401E+02  1.720000000E+02  0.00000E+00  9.000E+00
      24     2     3     3     0     0 -8.492328857E+01  8.515508343E+00 -7.120558002E+01  1.396870450E+02  8.460352890E+01  0.00000E+00  9.000E+00
     -24     2     4     4     0     0  5.121406267E+01  1.992511857E+02  6.073604696E+02  6.461607828E+02  7.945503138E+01  0.00000E+00  9.000E+00
     -11     1     5     5     0     0 -7.742426872E+00  3.705903347E+01 -2.381425274E+01  4.472623133E+01  5.840038640E-07  0.00000E+00  9.000E+00
      12     1     5     5     0     0 -7.718086170E+01 -2.854352512E+01 -4.739132728E+01  9.496081371E+01  1.507891493E-06  0.00000E+00  9.000E+00
      13     1     6     6     0     0  4.458093835E+01  7.394377171E+01  3.403973628E+02  3.511773143E+02  5.394796609E-06  0.00000E+00  9.000E+00
     -14     1     6     6     0     0  6.633124323E+00  1.253074140E+02  2.669631068E+02  2.949834686E+02  5.394796609E-06  0.00000E+00  9.000E+00
       5     1     3     3   502     0  2.451272292E+01 -4.570231121E+01 -1.019280466E+02  1.144616268E+02  4.750000000E+00  0.00000E+00  9.000E+00
      -5     1     4     4     0   512  2.067218055E+01 -1.655112463E+01  2.059331854E+01  3.388105729E+01  4.750000000E+00  0.00000E+00  9.000E+00
      21     1     1     2   512   513 -1.147567756E+01 -1.455132582E+02 -2.538823347E+01  1.481565452E+02  1.685873940E-06  0.00000E+00  9.000E+00
</event>
<event>
     13  10001  1.00000E+00  4.68873E+01 -1.00000E+00  1.43798E-01
      21    -1     0     0   502   503  0.000000000E+00  0.000000000E+00  2.356524823E+02  2.356524823E+02  0.000000000E+00  0.00000E+00  9.000E+00
      21    -1     0     0   511   504  0.000000000E+00  0.000000000E+00 -2.478818004E+02  2.478818004E+02  0.000000000E+00  0.00000E+00  9.000E+00
       6     2     1     2   502     0 -4.320281433E+01  2.525983139E+01 -2.457357945E+01  1.808104064E+02  1.720000000E+02  0.00000E+00  9.000E+00
      -6     2     1     2     0   504  2.721231168E+01  1.881649532E+01  1.011777661E+02  2.022758284E+02  1.720000000E+02  0.00000E+00  9.000E+00
      24     2     3     3     0     0 -5.205336486E+01  6.992869116E+01 -5.052371917E+01  1.281833076E+02  7.923849758E+01  0.00000E+00  9.000E+00
     -24     2     4     4     0     0  7.513907779E+01 -1.666335572E+01  3.072836216E+01  1.098557237E+02  7.211448780E+01  0.00000E+00  9.000E+00
     -11     1     5     5     0     0  1.195370029E+01  4.185924383E+01 -2.940538404E+00  4.363180045E+01  8.900871589E-07  0.00000E+00  9.000E+00
      12     1     5     5     0     0 -6.400706516E+01  2.806944733E+01 -4.758318077E+01  8.455150711E+01  1.168007728E-06  0.00000E+00  9.000E+00
      13     1     6     6     0     0  2.897324963E+01 -1.357261258E+01  5.030329027E+01  5.961615568E+01  9.536743164E-07  0.00000E+00  9.000E+00
     -14     1     6     6     0     0  4.616582815E+01 -3.090743135E+00 -1.957492811E+01  5.023956800E+01  7.539457465E-07  0.00000E+00  9.000E+00
       5     1     3     3   502     0  8.850550531E+00 -4.466885977E+01  2.595013973E+01  5.262709881E+01  4.750000000E+00  0.00000E+00  9.000E+00
      -5     1     4     4     0   504 -4.792676611E+01  3.547985104E+01  7.044940396E+01  9.242010472E+01  4.750000000E+00  0.00000E+00  9.000E+00
      21     1     1     2   511   503  1.599050265E+01 -4.407632671E+01 -8.883350479E+01  1.004480479E+02  0.000000000E+00  0.00000E+00  9.000E+00
</event>
<event>
     13  10001  1.00000E+00  6.76413E+01 -1.00000E+00  1.34704E-01
      21    -1     0     0   502   512  0.000000000E+00  0.000000000E+00  6.780513411E+02  6.780513411E+02  0.000000000E+00  0.00000E+00  9.000E+00
      21    -1     0     0   503   504  0.000000000E+00  0.000000000E+00 -2.123826000E+02  2.123826000E+02  0.000000000E+00  0.00000E+00  9.000E+00
       6     2     1     2   502     0 -4.384407123E+01  1.108192513E+02 -1.077333008E+02  2.353586054E+02  1.720000000E+02  0.00000E+00  9.000E+00
      -6     2     1     2     0   504 -2.358723102E+01 -1.161450009E+02  2.552978981E+02  3.298591146E+02  1.720000000E+02  0.00000E+00  9.000E+00
      24     2     3     3     0     0 -6.356028975E+01  1.283675222E+02 -1.224350983E+02  2.047746810E+02  8.015101682E+01  0.00000E+00  9.000E+00
     -24     2     4     4     0     0 -1.186900143E+00 -3.131132417E+01  2.173143922E+02  2.341311837E+02  8.130226564E+01  0.00000E+00  9.000E+00
     -11     1     5     5     0     0 -1.712521026E+01  7.077832993E+01 -1.066365699E+02  1.291286291E+02  3.814697266E-06  0.00000E+00  9.000E+00
      12     1     5     5     0     0 -4.643507949E+01  5.758919222E+01 -1.579852846E+01  7.564605191E+01  1.118282261E-06  0.00000E+00  9.000E+00
      13     1     6     6     0     0 -1.791595931E+01 -1.430413619E+01  9.278860574E+00  2.473231012E+01  4.616955931E-07  0.00000E+00  9.000E+00
     -14     1     6     6     0     0  1.672905917E+01 -1.700718798E+01  2.080355316E+02  2.093988736E+02  6.607249480E-06  0.00000E+00  9.000E+00
       5     1     3     3   502     0  1.971621852E+01 -1.754827086E+01  1.470179752E+01  3.058392442E+01  4.750000000E+00  0.00000E+00  9.000E+00
      -5     1     4     4     0   504 -2.240033088E+01 -8.483367668E+01  3.798350597E+01  9.572793087E+01  4.750000000E+00  0.00000E+00  9.000E+00
      21     1     1     2   503   512  6.743130225E+01  5.325749554E+00  3.181041439E+02  3.252162211E+02  0.000000000E+00  0.00000E+00  9.000E+00
</event>
<event>
     13  10001  1.00000E+00  1.45001E+01 -1.00000E+00  1.83916E-01
       2    -1     0     0   502     0  0.000000000E+00  0.000000000E+00  4.868695668E+02  4.868695668E+02  0.000000000E+00  0.00000E+00  9.000E+00
      21    -1     0     0   511   512  0.000000000E+00  0.000000000E+00 -1.892528980E+02  1.892528980E+02  0.000000000E+00  0.00000E+00  9.000E+00
       6     2     1     2   502     0  1.343458695E+02  1.760359078E+02  1.426346092E+02  3.145887557E+02  1.720000000E+02  0.00000E+00  9.000E+00
      -6     2     1     2     0   512 -1.472851736E+02 -1.694915589E+02  1.780951857E+02  3.342487189E+02  1.720000000E+02  0.00000E+00  9.000E+00
      24     2     3     3     0     0  1.448980982E+01  1.350865978E+02  6.541738214E+01  1.661725043E+02  6.982495117E+01  0.00000E+00  9.000E+00
     -24     2     4     4     0     0 -1.019369932E+02 -2.663734257E+01  9.584656817E+01  1.632189490E+02  7.970672551E+01  0.00000E+00  9.000E+00
     -11     1     5     5     0     0 -5.131315060E+00  1.832662661E+01  4.111624571E+01  4.530718815E+01  6.743495762E-07  0.00000E+00  9.000E+00
      12     1     5     5     0     0  1.962112488E+01  1.167599712E+02  2.430113643E+01  1.208653162E+02  0.000000000E+00  0.00000E+00  9.000E+00
      13     1     6     6     0     0 -3.703208048E+01  1.514500386E+01  7.210193564E+01  8.245868814E+01  1.348699152E-06  0.00000E+00  9.000E+00
     -14     1     6     6     0     0 -6.490491267E+01 -4.178234642E+01  2.374463254E+01  8.076026087E+01  2.211002945E-06  0.00000E+00  9.000E+00
       5     1     3     3   502     0  1.198560596E+02  4.094930996E+01  7.721722711E+01  1.484162514E+02  4.750000000E+00  0.00000E+00  9.000E+00
      -5     1     4     4     0   512 -4.534818041E+01 -1.428542163E+02  8.224861753E+01  1.710297699E+02  4.750000000E+00  0.00000E+00  9.000E+00
       2     1     1     2   511     0  1.293930411E+01 -6.544348882E+00 -2.311312608E+01  2.728499020E+01  5.840038640E-07  0.00000E+00  9.000E+00
</event>
<event>
     13  10001  1.00000E+00  2.70141E+01 -1.00000E+00  1.60143E-01
      21    -1     0     0   502   503  0.000000000E+00  0.000000000E+00  2.584058575E+02  2.584058575E+02  0.000000000E+00  0.00000E+00  9.000E+00
      21    -1     0     0   503   512  0.000000000E+00  0.000000000E+00 -3.685717927E+02  3.685717927E+02  0.000000000E+00  0.00000E+00  9.000E+00
       6     2     1     2   502     0 -3.508575233E+01  2.601952033E+01  1.484378521E+02  2.313564812E+02  1.720000000E+02  0.00000E+00  9.000E+00
      -6     2     1     2     0   504  6.190031574E+01 -2.929656245E+01 -5.915815359E+01  1.943543794E+02  1.720000000E+02  0.00000E+00  9.000E+00
      24     2     3     3     0     0  4.830835887E+00  7.717217015E+01  8.168686058E+01  1.381460474E+02  8.020415451E+01  0.00000E+00  9.000E+00
     -24     2     4     4     0     0  1.731073659E+01  4.773944579E+01 -4.065461837E+01  1.033174613E+02  8.026819755E+01  0.00000E+00  9.000E+00
     -11     1     5     5     0     0  3.786919441E+01  3.092371421E+01  5.979532758E+01  7.723880623E+01  1.784161275E-06  0.00000E+00  9.000E+00
      12     1     5     5     0     0 -3.303835853E+01  4.624845594E+01  2.189153300E+01  6.090724117E+01  1.066240300E-06  0.00000E+00  9.000E+00
      13     1     6     6     0     0  7.674014430E+00 -6.043317883E+00 -4.727952823E+01  4.827800719E+01  1.507891493E-06  0.00000E+00  9.000E+00
     -14     1     6     6     0     0  9.636722156E+00  5.378276368E+01  6.624909866E+00  5.503945415E+01  1.130918620E-06  0.00000E+00  9.000E+00
       5     1     3     3   502     0 -3.991658822E+01 -5.115264982E+01  6.675099151E+01  9.321043379E+01  4.750000000E+00  0.00000E+00  9.000E+00
      -5     1     4     4     0   504  4.458957916E+01 -7.703600824E+01 -1.850353522E+01  9.103691806E+01  4.750000000E+00  0.00000E+00  9.000E+00
      21     1     1     2   504   512 -2.681456341E+01  3.277042123E+00 -1.994456337E+02  2.012667896E+02  4.672030912E-06  0.00000E+00  9.000E+00
</event>
<event>
     13  10001  1.00000E+00  5.24392E+01 -1.00000E+00  1.40890E-01
       1    -1     0     0   503     0  0.000000000E+00  0.000000000E+00  3.164564012E+02  3.164564012E+02  0.000000000E+00  0.00000E+00  9.000E+00
      21    -1     0     0   502   503  0.000000000E+00  0.000000000E+00 -4.189437449E+02  4.189437449E+02  0.000000000E+00  0.00000E+00  9.000E+00
       6     2     1     2   502     0  5.791036567E+01 -1.062899384E+02 -2.507287754E+02  3.272614861E+02  1.720000000E+02  0.00000E+00  9.000E+00
      -6     2     1     2     0   504 -1.872634476E+01  7.144051454E+01 -5.750125607E+01  1.958183279E+02  1.720000000E+02  0.00000E+00  9.000E+00
      24     2     3     3     0     0  3.230577155E+01 -5.498451189E+01 -2.493890941E+02  2.697097765E+02  8.050766327E+01  0.00000E+00  9.000E+00
     -24     2     4     4     0     0  3.971011841E+01  1.059730176E+01  6.774683600E+00  8.965488936E+01  7.939084670E+01  0.00000E+00  9.000E+00
     -11     1     5     5     0     0  2.753218311E+01 -5.930995305E+00 -1.868102460E+01  3.379613132E+01  7.152557373E-07  0.00000E+00  9.000E+00
      12     1     5     5     0     0  4.773588439E+00 -4.905351659E+01 -2.307080695E+02  2.359136452E+02  2.697398305E-06  0.00000E+00  9.000E+00
      13     1     6     6     0     0  6.031512098E+01  1.121036383E+00 -1.038787552E+01  6.121338497E+01  8.840797528E-07  0.00000E+00  9.000E+00
     -14     1     6     6     0     0 -2.060500257E+01  9.476265381E+00  1.716255912E+01  2.844150439E+01  6.743495762E-07  0.00000E+00  9.000E+00
       5     1     3     3   502     0  2.560459412E+01 -5.130542654E+01 -1.339681295E+00  5.755170961E+01  4.750000000E+00  0.00000E+00  9.000E+00
      -5     1     4     4     0   504 -5.843646317E+01  6.084321277E+01 -6.427593967E+01  1.061634386E+02  4.750000000E+00  0.00000E+00  9.000E+00
       1     1     1     2   504     0 -3.918402091E+01  3.484942390E+01  2.057426878E+02  2.123203321E+02  3.814697266E-06  0.00000E+00  9.000E+00
</event>
<event>
     13  10001  1.00000E+00  1.00678E+01 -1.00000E+00  2.01614E-01
       2    -1     0     0   502     0  0.000000000E+00  0.000000000E+00  8.651143274E+01  8.651143274E+01  0.000000000E+00  0.00000E+00  9.000E+00
      -2    -1     0     0     0   511  0.000000000E+00  0.000000000E+00 -4.341063374E+02  4.341063374E+02  0.000000000E+00  0.00000E+00  9.000E+00
       6     2     1     2   502     0 -1.041187871E+01 -4.937307788E+01 -2.497046524E+02  3.073800929E+02  1.720000000E+02  0.00000E+00  9.000E+00
      -6     2     1     2     0   512  1.857975620E+00  4.406356739E+01 -8.494065901E+01  1.968348689E+02  1.720000000E+02  0.00000E+00  9.000E+00
      24     2     3     3     0     0  3.199824309E+01  1.435900946E+00 -2.159541048E+02  2.329366061E+02  8.122399702E+01  0.00000E+00  9.000E+00
     -24     2     4     4     0     0 -4.299766981E+01  5.684447525E+01 -7.757496858E+00  1.065288140E+02  7.879159517E+01  0.00000E+00  9.000E+00
     -11     1     5     5     0     0  5.059211237E+01 -2.331073185E+01 -1.519978478E+02  1.618835934E+02  1.907348633E-06  0.00000E+00  9.000E+00
      12     1     5     5     0     0 -1.859386927E+01  2.474663280E+01 -6.395625694E+01  7.105301268E+01  1.168007728E-06  0.00000E+00  9.000E+00
      13     1     6     6     0     0  1.895635994E+01  6.571456687E+00  1.322616256E+01  2.403037663E+01  4.460403188E-07  0.00000E+00  9.000E+00
     -14     1     6     6     0     0 -6.195402975E+01  5.027301857E+01 -2.098365941E+01  8.249843732E+01  1.488923549E-06  0.00000E+00  9.000E+00
       5     1     3     3   502     0 -4.241012180E+01 -5.080897883E+01 -3.375054764E+01  7.444348680E+01  4.750000000E+00  0.00000E+00  9.000E+00
      -5     1     4     4     0   512  4.485564543E+01 -1.278090787E+01 -7.718316215E+01  9.030605490E+01  4.750000000E+00  0.00000E+00  9.000E+00
      21     1     1     2   512   511  8.553903087E+00  5.309510497E+00 -1.294959320E+01  1.640280841E+01  2.384185791E-07  0.00000E+00  9.000E+00
</event>
<event>
     13  10001  1.00000E+00  1.76007E+01 -1.00000E+00  1.75763E-01
       1    -1     0     0   502     0  0.000000000E+00  0.000000000E+00  1.097989084E+03  1.097989084E+03  0.000000000E+00  0.00000E+00  9.000E+00
      -1    -1     0     0     0   513  0.000000000E+00  0.000000000E+00 -4.842813079E+01  4.842813079E+01  0.000000000E+00  0.00000E+00  9.000E+00
       6     2     1     2   502     0 -1.781363695E+00  1.101577264E+02  4.156549646E+02  4.631316741E+02  1.720000000E+02  0.00000E+00  9.000E+00
      -6     2     1     2     0   512 -1.247873824E+01 -9.984111588E+01  6.351165593E+02  6.656433063E+02  1.720000000E+02  0.00000E+00  9.000E+00
      24     2     3     3     0     0 -5.883904552E+01  1.063336720E+02  2.926094660E+02  3.273636379E+02  8.232720510E+01  0.00000E+00  9.000E+00
     -24     2     4     4     0     0  3.162198364E+01 -1.215150261E+02  4.519414292E+02  4.759321500E+02  8.058848882E+01  0.00000E+00  9.000E+00
     -11     1     5     5     0     0 -5.089597969E+01  3.524796275E+01  2.056463519E+02  2.147632223E+02  2.697398305E-06  0.00000E+00  9.000E+00
      12     1     5     5     0     0 -7.943065830E+00  7.108570923E+01  8.696311418E+01  1.126004155E+02  2.523185073E-06  0.00000E+00  9.000E+00
      13     1     6     6     0     0 -1.016881071E+01 -5.122618741E+01  8.320774920E+01  9.823979090E+01  2.132480600E-06  0.00000E+00  9.000E+00
     -14     1     6     6     0     0  4.179079435E+01 -7.028883865E+01  3.687336800E+02  3.776923591E+02  0.000000000E+00  0.00000E+00  9.000E+00
       5     1     3     3   502     0  5.705768183E+01  3.824054461E+00  1.230454986E+02  1.357680363E+02  4.750000000E+00  0.00000E+00  9.000E+00
      -5     1     4     4     0   512 -4.410072188E+01  2.167391018E+01  1.831751301E+02  1.897111563E+02  4.750000000E+00  0.00000E+00  9.000E+00
      21     1     1     2   512   513  1.426010194E+01 -1.031661055E+01 -1.210570492E+00  1.764223459E+01  5.053229617E-07  0.00000E+00  9.000E+00
</event>
<event>
     13  10001  1.00000E+00  9.39223E+00 -1.00000E+00  2.05394E-01
      21    -1     0     0   502   503  0.000000000E+00  0.000000000E+00  5.031347171E+02  5.031347171E+02  0.000000000E+00  0.00000E+00  9.000E+00
      21    -1     0     0   511   504  0.000000000E+00  0.000000000E+00 -1.096850835E+02  1.096850835E+02  0.000000000E+00  0.00000E+00  9.000E+00
       6     2     1     2   502     0 -1.107567477E+01  1.032399270E+02  3.334054455E+02  3.892612801E+02  1.720000000E+02  0.00000E+00  9.000E+00
      -6     2     1     2     0   504  1.686384672E+00 -1.030049561E+02  6.751849178E+01  2.115552212E+02  1.720000000E+02  0.00000E+00  9.000E+00
      24     2     3     3     0     0  2.520721428E+01  8.741275091E+00  8.350742791E+01  1.195984815E+02  8.135411926E+01  0.00000E+00  9.000E+00
     -24     2     4     4     0     0 -1.795792395E+01 -5.480990990E+01 -2.917604506E+01  1.016413581E+02  7.844176704E+01  0.00000E+00  9.000E+00
     -11     1     5     5     0     0 -9.511378837E+00 -3.124547949E+01  3.170712543E+01  4.552019463E+01  1.066240300E-06  0.00000E+00  9.000E+00
      12     1     5     5     0     0  3.471859312E+01  3.998675458E+01  5.180030248E+01  7.407828688E+01  9.536743164E-07  0.00000E+00  9.000E+00
      13     1     6     6     0     0  2.928748998E+01 -3.250216569E+01 -4.882951115E+00  4.402261982E+01  5.462855929E-07  0.00000E+00  9.000E+00
     -14     1     6     6     0     0 -4.724541392E+01 -2.230774421E+01 -2.429309395E+01  5.761873829E+01  1.907348633E-06  0.00000E+00  9.000E+00
       5     1     3     3   502     0 -3.628288906E+01  9.449865191E+01  2.498980176E+02  2.696627986E+02  4.750000000E+00  0.00000E+00  9.000E+00
      -5     1     4     4     0   504  1.964430862E+01 -4.819504622E+01  9.669453685E+01  1.099138631E+02  4.750000000E+00  0.00000E+00  9.000E+00
      21     1     1     2   511   503  9.389290098E+00 -2.349708805E-01 -7.474303683E+00  1.200329936E+01  2.064765462E-07  0.00000E+00  9.000E+00
</event>
<event>
     13  10001  1.00000E+00  6.82185E+01 -1.00000E+00  1.34507E-01
      21    -1     0     0   503   504  0.000000000E+00  0.000000000E+00  3.307533577E+02  3.307533577E+02  0.000000000E+00  0.00000E+00  9.000E+00
      21    -1     0     0   502   512  0.000000000E+00  0.000000000E+00 -5.149346810E+02  5.149346810E+02  0.000000000E+00  0.00000E+00  9.000E+00
       6     2     1     2   502     0 -3.621385514E+01 -3.289473704E+00 -1.829132847E+02  2.536996919E+02  1.720000000E+02  0.00000E+00  9.000E+00
      -6     2     1     2     0   504  6.318301665E+01 -5.937170697E+01  2.590881291E+02  3.228432310E+02  1.720000000E+02  0.00000E+00  9.000E+00
      24     2     3     3     0     0 -4.037472579E+01  5.712942951E+01 -1.482317035E+02  1.837487713E+02  8.304867761E+01  0.00000E+00  9.000E+00
     -24     2     4     4     0     0 -2.022939207E+01 -5.092236697E+01  1.944897482E+02  2.168973270E+02  7.884080494E+01  0.00000E+00  9.000E+00
     -11     1     5     5     0     0  1.134670967E+01 -7.098358253E+00  8.163632009E-01  1.340898800E+01  1.501250392E-07  0.00000E+00  9.000E+00
      12     1     5     5     0     0 -5.172143546E+01  6.422778776E+01 -1.490480667E+02  1.703397833E+02  1.907348633E-06  0.00000E+00  9.000E+00
      13     1     6     6     0     0  2.706576200E+01 -1.295464280E+00  4.694307775E+01  5.420227162E+01  9.536743164E-07  0.00000E+00  9.000E+00
     -14     1     6     6     0     0 -4.729515407E+01 -4.962690269E+01  1.475466705E+02  1.626950554E+02  0.000000000E+00  0.00000E+00  9.000E+00
       5     1     3     3   502     0  4.160870645E+00 -6.041890321E+01 -3.468158124E+01  6.995092056E+01  4.750000000E+00  0.00000E+00  9.000E+00
      -5     1     4     4     0   504  8.341240872E+01 -8.449340003E+00  6.459838088E+01  1.059459041E+02  4.750000000E+00  0.00000E+00  9.000E+00
      21     1     1     2   503   512 -2.696916151E+01  6.266118068E+01 -2.603561678E+02  2.691451157E+02  0.000000000E+00  0.00000E+00  9.000E+00
</event>
<event>
     13  10001  1.00000E+00  4.67086E+01 -1.00000E+00  1.43900E-01
       2    -1     0     0   502     0  0.000000000E+00  0.000000000E+00  1.352001920E+03  1.352001920E+03  0.000000000E+00  0.00000E+00  9.000E+00
      21    -1     0     0   503   504  0.000000000E+00  0.000000000E+00 -6.362174817E+01  6.362174817E+01  0.000000000E+00  0.00000E+00  9.000E+00
       6     2     1     2   502     0 -8.585760661E+01  3.340130652E+01  5.438691851E+02  5.778104070E+02  1.720000000E+02  0.00000E+00  9.000E+00
      -6     2     1     2     0   504  1.038840194E+02  9.688594560E+00  1.757242663E+02  2.671119168E+02  1.720000000E+02  0.00000E+00  9.000E+00
      24     2     3     3     0     0 -4.735932065E+01  6.341718109E+00  5.121215063E+02  5.208471121E+02  8.203751822E+01  0.00000E+00  9.000E+00
     -24     2     4     4     0     0  2.983268748E+01 -5.220436311E+01  1.207469706E+02  1.559390626E+02  7.824241551E+01  0.00000E+00  9.000E+00
     -11     1     5     5     0     0 -3.594158669E+01  4.198713923E+01  3.582702646E+02  3.625083448E+02  5.394796609E-06  0.00000E+00  9.000E+00
      12     1     5     5     0     0 -1.141773396E+01 -3.564542112E+01  1.538512416E+02  1.583387674E+02  1.907348633E-06  0.00000E+00  9.000E+00
      13     1     6     6     0     0  1.862177067E+01  1.793146326E+01  4.641524990E+01  5.312892941E+01  1.348699152E-06  0.00000E+00  9.000E+00
     -14     1     6     6     0     0  1.121091681E+01 -7.013582636E+01  7.433172067E+01  1.028101332E+02  2.336015456E-06  0.00000E+00  9.000E+00
       5     1     3     3   502     0 -3.849828596E+01  2.705958841E+01  3.174767885E+01  5.696329484E+01  4.750000000E+00  0.00000E+00  9.000E+00
      -5     1     4     4     0   504  7.405133189E+01  6.189295767E+01  5.497729573E+01  1.111728542E+02  4.750000000E+00  0.00000E+00  9.000E+00
       2     1     1     2   503     0 -1.802641277E+01 -4.308990108E+01  5.687867201E+02  5.707013440E+02  1.321449896E-05  0.00000E+00  9.000E+00
</event>
<event>
     13  10001  1.00000E+00  7.21480E+01 -1.00000E+00  1.33224E-01
      21    -1     0     0   503   511  0.000000000E+00  0.000000000E+00  2.124432279E+02  2.124432279E+02  0.000000000E+00  0.00000E+00  9.000E+00
      21    -1     0     0   502   503  0.000000000E+00  0.000000000E+00 -3.890802991E+02  3.890802991E+02  0.000000000E+00  0.00000E+00  9.000E+00
       6     2     1     2   502     0  6.526720749E+01 -4.524252633E+01  6.396959523E+01  1.999570046E+02  1.720000000E+02  0.00000E+00  9.000E+00
      -6     2     1     2     0   504  5.940639378E+00  3.363318935E+01 -2.713991212E+02  3.231222146E+02  1.720000000E+02  0.00000E+00  9.000E+00
      24     2     3     3     0     0 -1.764028902E+01 -6.098961529E+01  2.375460783E+01  1.063544859E+02  8.195170718E+01  0.00000E+00  9.000E+00
     -24     2     4     4     0     0  1.188874058E+01 -1.273237443E+01 -4.638622261E+01  9.325592214E+01  7.900335344E+01  0.00000E+00  9.000E+00
     -11     1     5     5     0     0 -2.510525150E-01 -3.057941023E+01  5.268820696E+01  6.091970543E+01  1.348699152E-06  0.00000E+00  9.000E+00
      12     1     5     5     0     0 -1.738923651E+01 -3.041020506E+01 -2.893359913E+01  4.543478048E+01  1.261592536E-06  0.00000E+00  9.000E+00
      13     1     6     6     0     0  3.426280265E+01 -3.189784465E+01 -4.306623833E+01  6.360906400E+01  8.259061849E-07  0.00000E+00  9.000E+00
     -14     1     6     6     0     0 -2.237406206E+01  1.916547022E+01 -3.319984280E+00  2.964685814E+01  1.019396268E-06  0.00000E+00  9.000E+00
       5     1     3     3   502     0  8.290749651E+01  1.574708896E+01  4.021498740E+01  9.360251866E+01  4.750000000E+00  0.00000E+00  9.000E+00
      -5     1     4     4     0   504 -5.948101206E+00  4.636556378E+01 -2.250128985E+02  2.298662925E+02  4.750000000E+00  0.00000E+00  9.000E+00
      21     1     1     2   504   511 -7.120784686E+01  1.160933698E+01  3.079245470E+01  7.844430780E+01  4.768371582E-07  0.00000E+00  9.000E+00
</event>
<event>
     13  10001  1.00000E+00  6.84863E+00 -1.00000E+00  2.24639E-01
      21    -1     0     0   503   504  0.000000000E+00  0.000000000E+00  1.379901572E+02  1.379901572E+02  0.000000000E+00  0.00000E+00  9.000E+00
      21    -1     0     0   502   512  0.000000000E+00  0.000000000E+00 -3.369984366E+02  3.369984366E+02  0.000000000E+00  0.00000E+00  9.000E+00
       6     2     1     2   502     0 -6.459549826E+01 -1.118616857E+01 -2.079878784E+02  2.777420860E+02  1.720000000E+02  0.00000E+00  9.000E+00
      -6     2     1     2     0   504  5.774775163E+01  1.107586971E+01  2.143478863E+01  1.830325869E+02  1.720000000E+02  0.00000E+00  9.000E+00
      24     2     3     3     0     0 -5.382512739E+01 -7.310419136E+01 -1.430351345E+02  1.872364846E+02  7.973132599E+01  0.00000E+00  9.000E+00
     -24     2     4     4     0     0 -2.251633677E+01 -3.967875076E+01  1.291235298E+01  8.756767297E+01  7.362051213E+01  0.00000E+00  9.000E+00
     -11     1     5     5     0     0 -4.490123581E+01 -2.180644800E+01 -1.206350163E+02  1.305543921E+02  1.348699152E-06  0.00000E+00  9.000E+00
      12     1     5     5     0     0 -8.923891584E+00 -5.129774337E+01 -2.240011824E+01  5.668209252E+01  4.129530925E-07  0.00000E+00  9.000E+00
      13     1     6     6     0     0 -2.212607556E+01 -1.119541232E+01 -2.819939869E+01  3.755138564E+01  3.371747881E-07  0.00000E+00  9.000E+00
     -14     1     6     6     0     0 -3.902612036E-01 -2.848333844E+01  4.111175167E+01  5.001628733E+01  6.743495762E-07  0.00000E+00  9.000E+00
       5     1     3     3   502     0 -1.077037087E+01  6.191802279E+01 -6.495274393E+01  9.050560137E+01  4.750000000E+00  0.00000E+00  9.000E+00
      -5     1     4     4     0   504  8.026408839E+01  5.075462047E+01  8.522435656E+00  9.546491394E+01  4.750000000E+00  0.00000E+00  9.000E+00
      21     1     1     2   503   512  6.847746636E+00  1.102988678E-01 -1.245518959E+01  1.421392091E+01  1.685873940E-07  0.00000E+00  9.000E+00
</event>
<event>
     13  10001  1.00000E+00  2.47803E+01 -1.00000E+00  1.63055E-01
      21    -1     0     0   511   504  0.000000000E+00  0.000000000E+00  5.510927247E+02  5.510927247E+02  0.000000000E+00  0.00000E+00  9.000E+00
      21    -1     0     0   502   503  0.000000000E+00  0.000000000E+00 -9.715695725E+01  9.715695725E+01  0.000000000E+00  0.00000E+00  9.000E+00
       6     2     1     2   502     0  5.944058898E+00 -7.681726900E+00  5.343687719E+01  1.803713963E+02  1.720000000E+02  0.00000E+00  9.000E+00
      -6     2     1     2     0   504  1.613049716E+00 -1.591814000E+01  1.934464845E+02  2.593482822E+02  1.720000000E+02  0.00000E+00  9.000E+00
      24     2     3     3     0     0 -5.088715564E+01 -2.111571745E+01  5.721230599E+01  1.216595967E+02  9.215439972E+01  0.00000E+00  9.000E+00
     -24     2     4     4     0     0 -2.352848291E+01  1.174799959E+01  2.053344415E+02  2.198337536E+02  7.398000649E+01  0.00000E+00  9.000E+00
     -11     1     5     5     0     0  1.302947778E+01 -3.584952522E+01  3.670447567E+01  5.293556729E+01  1.066240300E-06  0.00000E+00  9.000E+00
      12     1     5     5     0     0 -6.391663342E+01  1.473380777E+01  2.050783032E+01  6.872402944E+01  1.118282261E-06  0.00000E+00  9.000E+00
      13     1     6     6     0     0 -1.171492706E+01 -3.084386121E+01  6.838280670E+01  7.592622434E+01  9.536743164E-07  0.00000E+00  9.000E+00
     -14     1     6     6     0     0 -1.181355585E+01  4.259186080E+01  1.369516348E+02  1.439075293E+02  1.907348633E-06  0.00000E+00  9.000E+00
       5     1     3     3   502     0  5.683121454E+01  1.343399055E+01 -3.775428798E+00  5.871179958E+01  4.750000000E+00  0.00000E+00  9.000E+00
      -5     1     4     4     0   504  2.514153263E+01 -2.766613959E+01 -1.188795704E+01  3.951452854E+01  4.750000000E+00  0.00000E+00  9.000E+00
      21     1     1     2   511   503 -7.557108614E+00  2.359986690E+01  2.070524058E+02  2.085300034E+02  0.000000000E+00  0.00000E+00  9.000E+00
</event>
<event>
     13  10001  1.00000E+00  1.00763E+02 -1.00000E+00  1.26062E-01
      -3    -1     0     0     0   513  0.000000000E+00  0.000000000E+00  3.448576448E+02  3.448576448E+02  0.000000000E+00  0.00000E+00  9.000E+00
       3    -1     0     0   502     0  0.000000000E+00  0.000000000E+00 -6.550762297E+02  6.550762297E+02  0.000000000E+00  0.00000E+00  9.000E+00
       6     2     1     2   502     0 -6.799269810E-01 -7.879934580E+01 -5.141603245E+01  1.960546036E+02  1.720000000E+02  0.00000E+00  9.000E+00
      -6     2     1     2     0   512 -6.333793034E+01  9.865661348E-01 -5.053348545E+02  5.375499809E+02  1.720000000E+02  0.00000E+00  9.000E+00
      24     2     3     3     0     0 -6.415237337E+01 -5.740162193E+01 -5.372641430E+01  1.288644674E+02  7.942952949E+01  0.00000E+00  9.000E+00
     -24     2     4     4     0     0 -1.390962108E+01  6.268818698E+01 -3.161628332E+02  3.324674026E+02  8.032652317E+01  0.00000E+00  9.000E+00
     -11     1     5     5     0     0  2.507539258E+00 -3.626613034E+01  6.067956113E+00  3.685566516E+01  7.907449699E-07  0.00000E+00  9.000E+00
      12     1     5     5     0     0 -6.665991263E+01 -2.113549159E+01 -5.979437041E+01  9.200880224E+01  9.536743164E-07  0.00000E+00  9.000E+00
      13     1     6     6     0     0  6.670626076E+00  6.149774972E+01 -2.998917150E+02  3.062050150E+02  0.000000000E+00  0.00000E+00  9.000E+00
     -14     1     6     6     0     0 -2.058024716E+01  1.190437261E+00 -1.627111820E+01  2.626238758E+01  4.129530925E-07  0.00000E+00  9.000E+00
       5     1     3     3   502     0  6.347244639E+01 -2.139772387E+01  2.310381849E+00  6.719013620E+01  4.750000000E+00  0.00000E+00  9.000E+00
      -5     1     4     4     0   512 -4.942830925E+01 -6.170162085E+01 -1.891720213E+02  2.050825783E+02  4.750000000E+00  0.00000E+00  9.000E+00
      21     1     1     2   512   513  6.401785732E+01  7.781277966E+01  2.465323021E+02  2.663292900E+02  5.394796609E-06  0.00000E+00  9.000E+00
</event>
<event>
     13  10001  1.00000E+00  8.05606E+01 -1.00000E+00  1.30769E-01
      21    -1     0     0   511   503  0.000000000E+00  0.000000000E+00  1.184299963E+03  1.184299963E+03  0.000000000E+00  0.00000E+00  9.000E+00
      21    -1     0     0   503   504  0.000000000E+00  0.000000000E+00 -7.921349897E+01  7.921349897E+01  0.000000000E+00  0.00000E+00  9.000E+00
       6     2     1     2   502     0  1.448515950E+02 -7.413464646E+00  8.251254933E+02  8.552502697E+02  1.720000000E+02  0.00000E+00  9.000E+00
      -6     2     1     2     0   504 -8.610845221E+01 -4.771589152E+01  1.269916015E+02  2.353770139E+02  1.720000000E+02  0.00000E+00  9.000E+00
      24     2     3     3     0     0  4.997455822E+01 -1.088660305E+01  6.454084783E+02  6.519414337E+02  7.654772683E+01  0.00000E+00  9.000E+00
     -24     2     4     4     0     0 -6.516318995E+01 -7.787066540E+01  1.449744732E+02  1.942192616E+02  7.995900103E+01  0.00000E+00  9.000E+00
     -11     1     5     5     0     0  6.766632432E+00  2.123739667E+01  4.034343676E+02  4.040496297E+02  9.344061824E-06  0.00000E+00  9.000E+00
      12     1     5     5     0     0  4.320792579E+01 -3.212399972E+01  2.419741108E+02  2.478918040E+02  5.394796609E-06  0.00000E+00  9.000E+00
      13     1     6     6     0     0 -1.418720599E+01 -6.832814258E+01  1.144320085E+02  1.340324455E+02  1.348699152E-06  0.00000E+00  9.000E+00
     -14     1     6     6     0     0 -5.097598396E+01 -9.542522824E+00  3.054246474E+01  6.018681612E+01  5.840038640E-07  0.00000E+00  9.000E+00
       5     1     3     3   502     0  9.487703681E+01  3.473138400E+00  1.797170150E+02  2.033088360E+02  4.750000000E+00  0.00000E+00  9.000E+00
      -5     1     4     4     0   504 -2.094526227E+01  3.015477388E+01 -1.798287175E+01  4.115775232E+01  4.750000000E+00  0.00000E+00  9.000E+00
      21     1     1     2   511   502 -5.874314282E+01  5.512935617E+01  1.529693691E+02  1.728861782E+02  1.907348633E-06  0.00000E+00  9.000E+00
</event>
<event>
     13  10001  1.00000E+00  3.06445E+01 -1.00000E+00  1.56076E-01
      21    -1     0     0   502   503  0.000000000E+00  0.000000000E+00  6.395357720E+01  6.395357720E+01  0.000000000E+00  0.00000E+00  9.000E+00
      21    -1     0     0   512   504  0.000000000E+00  0.000000000E+00 -6.272427064E+02  6.272427064E+02  0.000000000E+00  0.00000E+00  9.000E+00
       6     2     1     2   502     0  3.644493774E+01  2.949972380E+01 -1.835358142E+02  2.558668839E+02  1.720000000E+02  0.00000E+00  9.000E+00
      -6     2     1     2     0   504 -1.529520396E+01 -5.167576298E+01 -3.012298448E+02  3.510380993E+02  1.720000000E+02  0.00000E+00  9.000E+00
      24     2     3     3     0     0  4.378128904E+01  4.529714757E+01 -2.041722110E+02  2.284478391E+02  8.083001049E+01  0.00000E+00  9.000E+00
     -24     2     4     4     0     0 -4.092817569E+01  2.827097984E+01 -1.790639400E+02  2.027289568E+02  8.099858935E+01  0.00000E+00  9.000E+00
     -11     1     5     5     0     0 -2.108390094E+01  2.454458512E+01 -4.603358458E+01  5.626773896E+01  0.000000000E+00  0.00000E+00  9.000E+00
      12     1     5     5     0     0  6.486518999E+01  2.075256245E+01 -1.581386264E+02  1.721801001E+02  1.907348633E-06  0.00000E+00  9.000E+00
      13     1     6     6     0     0 -1.301217533E+01 -2.756208030E+01 -8.031984014E+01  8.590844951E+01  2.132480600E-06  0.00000E+00  9.000E+00
     -14     1     6     6     0     0 -2.791600036E+01  5.583306014E+01 -9.874409983E+01  1.168205073E+02  1.348699152E-06  0.00000E+00  9.000E+00
       5     1     3     3   502     0 -7.336351308E+00 -1.579742376E+01  2.063639678E+01  2.741904484E+01  4.750000000E+00  0.00000E+00  9.000E+00
      -5     1     4     4     0   504  2.563297173E+01 -7.994674282E+01 -1.221659049E+02  1.483091425E+02  4.750000000E+00  0.00000E+00  9.000E+00
      21     1     1     2   512   503 -2.114973378E+01  2.217603918E+01 -7.852347017E+01  8.429130039E+01  1.348699152E-06  0.00000E+00  9.000E+00
</event>
<event>
     13  10001  1.00000E+00  1.27316E+01 -1.00000E+00  1.89844E-01
       2    -1     0     0   511     0  0.000000000E+00  0.000000000E+00  4.190353261E+02  4.190353261E+02  0.000000000E+00  0.00000E+00  9.000E+00
      -2    -1     0     0     0   512  0.000000000E+00  0.000000000E+00 -2.968662095E+02  2.968662095E+02  0.000000000E+00  0.00000E+00  9.000E+00
       6     2     1     2   502     0  8.940028693E+01 -2.164811094E+01  1.640551379E+02  2.548708306E+02  1.720000000E+02  0.00000E+00  9.000E+00
      -6     2     1     2     0   512 -7.742530896E+01  1.732465107E+01 -2.155214647E+02  2.869291267E+02  1.720000000E+02  0.00000E+00  9.000E+00
      24     2     3     3     0     0  1.934525914E+01  4.906046971E+01  7.590315406E+01  1.218266836E+02  7.936802439E+01  0.00000E+00  9.000E+00
     -24     2     4     4     0     0 -1.957459566E+01  1.147167859E+01 -1.996458618E+01  8.285556753E+01  7.714723692E+01  0.00000E+00  9.000E+00
     -11     1     5     5     0     0 -4.432427002E+00  3.220290198E+01 -7.599660602E+00  3.338305179E+01  9.647854600E-07  0.00000E+00  9.000E+00
      12     1     5     5     0     0  2.377768614E+01  1.685756773E+01  8.350281467E+01  8.844363180E+01  1.348699152E-06  0.00000E+00  9.000E+00
      13     1     6     6     0     0  1.692526525E+01 -2.364202615E+01 -1.254602062E+01  3.166721708E+01  3.769728732E-07  0.00000E+00  9.000E+00
     -14     1     6     6     0     0 -3.649986091E+01  3.511370473E+01 -7.418565558E+00  5.118835045E+01  7.202056631E-07  0.00000E+00  9.000E+00
       5     1     3     3   502     0  7.005502779E+01 -7.070858066E+01  8.815198384E+01  1.330441470E+02  4.750000000E+00  0.00000E+00  9.000E+00
      -5     1     4     4     0   512 -5.785071331E+01  5.852972479E+00 -1.955568785E+02  2.040735592E+02  4.750000000E+00  0.00000E+00  9.000E+00
      21     1     1     2   511   502 -1.197497797E+01  4.323459877E+00  1.736354433E+02  1.741015783E+02  2.697398305E-06  0.00000E+00  9.000E+00
</event>
<event>
     13  10001  1.00000E+00  5.73980E+00 -1.00000E+00  2.37151E-01
       2    -1     0     0   502     0  0.000000000E+00  0.000000000E+00  5.697567187E+02  5.697567187E+02  0.000000000E+00  0.00000E+00  9.000E+00
      -2    -1     0     0     0   513  0.000000000E+00  0.000000000E+00 -9.965939451E+01  9.965939451E+01  0.000000000E+00  0.00000E+00  9.000E+00
       6     2     1     2   502     0  1.307069268E+02 -5.261356491E+01  1.246361760E+02  2.548934371E+02  1.720000000E+02  0.00000E+00  9.000E+00
      -6     2     1     2     0   512 -1.284605822E+02  5.789553601E+01  3.416576432E+02  4.076370438E+02  1.720000000E+02  0.00000E+00  9.000E+00
      24     2     3     3     0     0  8.959854400E+01 -3.844498321E+01  1.554103112E+02  2.014120596E+02  8.311760999E+01  0.00000E+00  9.000E+00
     -24     2     4     4     0     0 -6.318468131E+01 -3.712639244E+01  1.824999952E+02  2.110567051E+02  7.660294741E+01  0.00000E+00  9.000E+00
     -11     1     5     5     0     0 -1.207860432E+01 -2.004390485E+01  4.130875693E+01  4.747698604E+01  1.261592536E-06  0.00000E+00  9.000E+00
      12     1     5     5     0     0  1.016771483E+02 -1.840107836E+01  1.141015543E+02  1.539350735E+02  2.697398305E-06  0.00000E+00  9.000E+00
      13     1     6     6     0     0 -4.572029027E+00 -1.700512236E+01 -7.368357145E-01  1.762443085E+01  4.210731730E-07  0.00000E+00  9.000E+00
     -14     1     6     6     0     0 -5.861265228E+01 -2.012127008E+01  1.832368309E+02  1.934322742E+02  2.697398305E-06  0.00000E+00  9.000E+00
       5     1     3     3   502     0  4.110838277E+01 -1.416858170E+01 -3.077413525E+01  5.348137752E+01  4.750000000E+00  0.00000E+00  9.000E+00
      -5     1     4     4     0   512 -6.527590087E+01  9.502192845E+01  1.591576481E+02  1.965803387E+02  4.750000000E+00  0.00000E+00  9.000E+00
      21     1     1     2   512   513 -2.246344593E+00 -5.281971097E+00  3.803505009E+00  6.885632365E+00  0.000000000E+00  0.00000E+00  9.000E+00
</event>
<event>
     13  10001  1.00000E+00  3.18997E+01 -1.00000E+00  1.54825E-01
      21    -1     0     0   502   503  0.000000000E+00  0.000000000E+00  2.491037379E+02  2.491037379E+02  0.000000000E+00  0.00000E+00  9.000E+00
       2    -1     0     0   503     0  0.000000000E+00  0.000000000E+00 -1.255928100E+03  1.255928100E+03  0.000000000E+00  0.00000E+00  9.000E+00
       6     2     1     2   502     0 -4.493801714E+01 -1.358184044E+02 -2.000400924E+02  3.001101513E+02  1.720000000E+02  0.00000E+00  9.000E+00
      -6     2     1     2     0   504  2.026282661E+01  1.560353414E+02  1.304594119E+02  2.671352992E+02  1.720000000E+02  0.00000E+00  9.000E+00
      24     2     3     3     0     0 -9.031293695E+01 -1.178887001E+02 -1.704651815E+02  2.428598631E+02  8.870379258E+01  0.00000E+00  9.000E+00
     -24     2     4     4     0     0 -4.770089313E+01  5.828063216E+01  3.851397573E+01  1.166308935E+02  8.029590097E+01  0.00000E+00  9.000E+00
     -11     1     5     5     0     0 -1.042548401E+02 -7.879888446E+01 -1.190059310E+02  1.767505233E+02  5.046370146E-06  0.00000E+00  9.000E+00
      12     1     5     5     0     0  1.394190312E+01 -3.908981569E+01 -5.145925051E+01  6.610933986E+01  1.784161275E-06  0.00000E+00  9.000E+00
      13     1     6     6     0     0 -4.354882844E+01 -4.484438784E+00  3.019201954E+01  5.318052927E+01  1.066240300E-06  0.00000E+00  9.000E+00
     -14     1     6     6     0     0 -4.152064689E+00  6.276507094E+01  8.321956192E+00  6.345036427E+01  8.760057960E-07  0.00000E+00  9.000E+00
       5     1     3     3   502     0  4.537491981E+01 -1.792970429E+01 -2.957491088E+01  5.725028819E+01  4.750000000E+00  0.00000E+00  9.000E+00
      -5     1     4     4     0   504  6.796371974E+01  9.775470921E+01  9.194543618E+01  1.505044056E+02  4.750000000E+00  0.00000E+00  9.000E+00
       2     1     1     2   504     0  2.467519052E+01 -2.021693693E+01 -9.372436814E+02  9.377863872E+02  1.868812365E-05  0.00000E+00  9.000E+00
</event>
<event>
     13  10001  1.00000E+00  8.06485E+00 -1.00000E+00  2.14230E-01
       2    -1     0     0   502     0  0.000000000E+00  0.000000000E+00  1.293032224E+03  1.293032224E+03  0.000000000E+00  0.00000E+00  9.000E+00
      21    -1     0     0   511   512  0.000000000E+00  0.000000000E+00 -9.042210761E+01  9.042210761E+01  0.000000000E+00  0.00000E+00  9.000E+00
       6     2     1     2   502     0  1.028755350E+02 -4.281609492E+01  1.124861112E+03  1.143377941E+03  1.720000000E+02  0.00000E+00  9.000E+00
      -6     2     1     2     0   512 -1.037096438E+02  3.479449766E+01  9.204894759E+01  2.236590173E+02  1.720000000E+02  0.00000E+00  9.000E+00
      24     2     3     3     0     0  2.414642843E+01  1.336174089E+01  2.618888653E+02  2.749898461E+02  7.919628519E+01  0.00000E+00  9.000E+00
     -24     2     4     4     0     0 -4.936765467E+01  6.096928151E+01  1.134155698E+02  1.594930908E+02  8.012824668E+01  0.00000E+00  9.000E+00
     -11     1     5     5     0     0 -2.527220503E+01 -5.359856462E+00  1.364432901E+02  1.388675046E+02  1.907348633E-06  0.00000E+00  9.000E+00
      12     1     5     5     0     0  4.941863347E+01  1.872159735E+01  1.254455752E+02  1.361223416E+02  0.000000000E+00  0.00000E+00  9.000E+00
      13     1     6     6     0     0 -3.748964294E+01  8.001680233E+01  9.954146625E+01  1.331039650E+02  3.015782986E-06  0.00000E+00  9.000E+00
     -14     1     6     6     0     0 -1.187801173E+01 -1.904752082E+01  1.387410353E+01  2.638912581E+01  7.348554138E-07  0.00000E+00  9.000E+00
       5     1     3     3   502     0  7.872910660E+01 -5.617783581E+01  8.629722471E+02  8.683880948E+02  4.750000000E+00  0.00000E+00  9.000E+00
      -5     1     4     4     0   512 -5.434198910E+01 -2.617478384E+01 -2.136662219E+01  6.416592657E+01  4.750000000E+00  0.00000E+00  9.000E+00
       2     1     1     2   511     0  8.341087401E-01  8.021597258E+00 -1.429994360E+01  1.641737333E+01  5.331201500E-07  0.00000E+00  9.000E+00
</event>
<event>
     13  10001  1.00000E+00  1.98890E+02 -1.00000E+00  1.13668E-01
      21    -1     0     0   503   504  0.000000000E+00  0.000000000E+00  9.495391282E+02  9.495391282E+02  0.000000000E+00  0.00000E+00  9.000E+00
      21    -1     0     0   512   503  0.000000000E+00  0.000000000E+00 -3.036157381E+02  3.036157381E+02  0.000000000E+00  0.00000E+00  9.000E+00
       6     2     1     2   502     0  1.796346565E+02 -2.247704856E+02  6.800665619E+02  7.581984632E+02  1.720000000E+02  0.00000E+00  9.000E+00
      -6     2     1     2     0   504 -8.122988872E+01  5.193000829E+01  1.307603658E+02  2.365952109E+02  1.720000000E+02  0.00000E+00  9.000E+00
      24     2     3     3     0     0  1.980765243E+02 -2.307764645E+02  6.494704431E+02  7.216627375E+02  8.058017170E+01  0.00000E+00  9.000E+00
     -24     2     4     4     0     0 -3.468094611E+01  6.648552339E+01  1.506959515E+01  1.109545170E+02  8.037859971E+01  0.00000E+00  9.000E+00
     -11     1     5     5     0     0 -1.144051120E+00 -3.521407952E+01  6.459831382E+01  7.358180752E+01  0.000000000E+00  0.00000E+00  9.000E+00
      12     1     5     5     0     0  1.992205755E+02 -1.955623850E+02  5.848721293E+02  6.480809299E+02  1.078959322E-05  0.00000E+00  9.000E+00
      13     1     6     6     0     0  5.161371489E+00  2.736815321E+01  4.086140448E+01  4.945007525E+01  6.743495762E-07  0.00000E+00  9.000E+00
     -14     1     6     6     0     0 -3.984231760E+01  3.911737018E+01 -2.579180933E+01  6.150444171E+01  3.946529712E-06  0.00000E+00  9.000E+00
       5     1     3     3   502     0 -1.844186782E+01  6.005978968E+00  3.059611875E+01  3.653572573E+01  4.750000000E+00  0.00000E+00  9.000E+00
      -5     1     4     4     0   504 -4.654894261E+01 -1.455551510E+01  1.156907706E+02  1.256406940E+02  4.750000000E+00  0.00000E+00  9.000E+00
      21     1     1     2   512   502 -9.840476780E+01  1.728404773E+02 -1.649035376E+02  2.583611922E+02  3.303624740E-06  0.00000E+00  9.000E+00
</event>
<event>
     13  10001  1.00000E+00  2.04013E+01 -1.00000E+00  1.70035E-01
      21    -1     0     0   502   511  0.000000000E+00  0.000000000E+00  5.453440751E+01  5.453440751E+01  0.000000000E+00  0.00000E+00  9.000E+00
      21    -1     0     0   503   504  0.000000000E+00  0.000000000E+00 -1.390310940E+03  1.390310940E+03  0.000000000E+00  0.00000E+00  9.000E+00
       6     2     1     2   502     0  9.237644386E+01 -1.696324234E+02 -8.494414000E+02  8.879432744E+02  1.720000000E+02  0.00000E+00  9.000E+00
      -6     2     1     2     0   504 -8.306682550E+01  1.514790216E+02 -4.741220296E+02  5.331244605E+02  1.720000000E+02  0.00000E+00  9.000E+00
      24     2     3     3     0     0  5.513934586E+01 -1.399302184E+02 -3.911440180E+02  4.271527848E+02  8.273478852E+01  0.00000E+00  9.000E+00
     -24     2     4     4     0     0  2.451604896E+01  5.508267561E+01 -1.828275221E+02  2.079454591E+02  7.861471431E+01  0.00000E+00  9.000E+00
     -11     1     5     5     0     0 -8.897972045E+00 -4.352321494E+00 -1.978157487E+00  1.010097599E+01  3.278255463E-07  0.00000E+00  9.000E+00
      12     1     5     5     0     0  6.403731791E+01 -1.355778969E+02 -3.891658605E+02  4.170518088E+02  7.629394531E-06  0.00000E+00  9.000E+00
      13     1     6     6     0     0 -2.212219442E+00  6.553017609E+01 -1.534800508E+02  1.668988432E+02  4.264961200E-06  0.00000E+00  9.000E+00
     -14     1     6     6     0     0  2.672826840E+01 -1.044750048E+01 -2.934747132E+01  4.104661583E+01  8.920806376E-07  0.00000E+00  9.000E+00
       5     1     3     3   502     0  3.723709800E+01 -2.970220497E+01 -4.582973820E+02  4.607904896E+02  4.750000000E+00  0.00000E+00  9.000E+00
      -5     1     4     4     0   504 -1.075828745E+02  9.639634595E+01 -2.912945075E+02  3.251790014E+02  4.750000000E+00  0.00000E+00  9.000E+00
      21     1     1     2   503   511 -9.309618360E+00  1.815340180E+01 -1.221310340E+01  2.377761312E+01  4.768371582E-07  0.00000E+00  9.000E+00
</event>
<event>
     13  10001  1.00000E+00  3.98889E+01 -1.00000E+00  1.48224E-01
      21    -1     0     0   502   512  0.000000000E+00  0.000000000E+00  3.880374285E+02  3.880374285E+02  0.000000000E+00  0.00000E+00  9.000E+00
      21    -1     0     0   503   504  0.000000000E+00  0.000000000E+00 -2.902760171E+02  2.902760171E+02  0.000000000E+00  0.00000E+00  9.000E+00
       6     2     1     2   502     0 -1.427924833E+02 -9.794058970E+01 -1.752586664E+02  3.004690542E+02  1.720000000E+02  0.00000E+00  9.000E+00
      -6     2     1     2     0   504  1.084742113E+02  7.760877040E+01  2.050298595E+02  2.990167538E+02  1.720000000E+02  0.00000E+00  9.000E+00
      24     2     3     3     0     0 -6.364668637E+01 -8.923866664E+01 -1.743394412E+02  2.206994603E+02  7.936983503E+01  0.00000E+00  9.000E+00
     -24     2     4     4     0     0  1.524014275E+00 -9.781994652E+00  6.849714068E+01  1.047508631E+02  7.863125974E+01  0.00000E+00  9.000E+00
     -11     1     5     5     0     0  1.525024694E+01 -1.068091086E+01 -5.224271286E+01  5.546127420E+01  9.536743164E-07  0.00000E+00  9.000E+00
      12     1     5     5     0     0 -7.889693331E+01 -7.855775578E+01 -1.220967283E+02  1.652381861E+02  2.697398305E-06  0.00000E+00  9.000E+00
      13     1     6     6     0     0  1.384924426E+01  9.205657027E+00  7.832604279E+01  8.007193433E+01  0.000000000E+00  0.00000E+00  9.000E+00
     -14     1     6     6     0     0 -1.232522999E+01 -1.898765168E+01 -9.828902113E+00  2.467892881E+01  8.429369702E-07  0.00000E+00  9.000E+00
       5     1     3     3   502     0 -7.914579694E+01 -8.701923062E+00 -9.192251870E-01  7.976959391E+01  4.750000000E+00  0.00000E+00  9.000E+00
      -5     1     4     4     0   504  1.069501970E+02  8.739076505E+01  1.365327188E+02  1.942658906E+02  4.750000000E+00  0.00000E+00  9.000E+00
      21     1     1     2   503   512  3.431827201E+01  2.033181931E+01  6.799021832E+01  7.882763765E+01  1.348699152E-06  0.00000E+00  9.000E+00
</event>
<event>
     13  10001  1.00000E+00  8.00605E+01 -1.00000E+00  1.30905E-01
      21    -1     0     0   502   503  0.000000000E+00  0.000000000E+00  2.170028089E+02  2.170028089E+02  0.000000000E+00  0.00000E+00  9.000E+00
      21    -1     0     0   511   504  0.000000000E+00  0.000000000E+00 -8.817448322E+02  8.817448322E+02  0.000000000E+00  0.00000E+00  9.000E+00
       6     2     1     2   502     0  2.664906083E+01  5.898022342E+01  1.521495014E+02  2.385839684E+02  1.720000000E+02  0.00000E+00  9.000E+00
      -6     2     1     2     0   504 -3.705860948E+01  2.040066812E+01 -4.295754099E+02  4.646596180E+02  1.720000000E+02  0.00000E+00  9.000E+00
      24     2     3     3     0     0 -3.048293996E+01  7.955071972E+01  7.228530523E+01  1.381446177E+02  8.124803642E+01  0.00000E+00  9.000E+00
     -24     2     4     4     0     0  4.372975169E+01 -5.063560437E+00 -2.461878936E+02  2.625984147E+02  8.007195279E+01  0.00000E+00  9.000E+00
     -11     1     5     5     0     0 -3.859416813E+01  4.077084946E+01  8.004776954E+01  9.777227310E+01  1.348699152E-06  0.00000E+00  9.000E+00
      12     1     5     5     0     0  8.111228170E+00  3.877987026E+01 -7.762464304E+00  4.037234464E+01  8.387116956E-07  0.00000E+00  9.000E+00
      13     1     6     6     0     0  8.522889437E+00  2.251242061E+01 -1.863351091E+02  1.878835320E+02  3.814697266E-06  0.00000E+00  9.000E+00
     -14     1     6     6     0     0  3.520686225E+01 -2.757598104E+01 -5.985278450E+01  7.471488267E+01  1.168007728E-06  0.00000E+00  9.000E+00
       5     1     3     3   502     0  5.713200079E+01 -2.057049630E+01  7.986419613E+01  1.004393506E+02  4.750000000E+00  0.00000E+00  9.000E+00
      -5     1     4     4     0   504 -8.078836117E+01  2.546422855E+01 -1.833875163E+02  2.020612033E+02  4.750000000E+00  0.00000E+00  9.000E+00
      21     1     1     2   511   503  1.040954865E+01 -7.938089154E+01 -3.873161146E+02  3.955040547E+02  5.394796609E-06  0.00000E+00  9.000E+00
</event>
<event>
     13  10001  1.00000E+00  2.31972E+01 -1.00000E+00  1.65358E-01
      -2    -1     0     0     0   513  0.000000000E+00  0.000000000E+00  1.972768785E+02  1.972768785E+02  0.000000000E+00  0.00000E+00  9.000E+00
       2    -1     0     0   502     0  0.000000000E+00  0.000000000E+00 -4.727184707E+02  4.727184707E+02  0.000000000E+00  0.00000E+00  9.000E+00
       6     2     1     2   502     0 -9.020510464E+01 -8.101120687E+01 -7.113853680E+01  2.221361474E+02  1.720000000E+02  0.00000E+00  9.000E+00
      -6     2     1     2     0   512  9.425089566E+01  5.816953552E+01 -2.923439524E+02  3.568135545E+02  1.720000000E+02  0.00000E+00  9.000E+00
      24     2     3     3     0     0 -2.270145190E+01 -3.391349464E+01 -1.000096728E+02  1.347803083E+02  8.061213191E+01  0.00000E+00  9.000E+00
     -24     2     4     4     0     0  1.099532160E+02  1.057381451E+01 -1.351166726E+02  1.917229869E+02  7.937048069E+01  0.00000E+00  9.000E+00
     -11     1     5     5     0     0 -2.986731797E+01 -5.651462484E+01 -5.688670050E+01  8.556901423E+01  1.348699152E-06  0.00000E+00  9.000E+00
      12     1     5     5     0     0  7.165866073E+00  2.260113020E+01 -4.312297227E+01  4.921129403E+01  6.743495762E-07  0.00000E+00  9.000E+00
      13     1     6     6     0     0  5.311252257E+01 -2.457043366E+01 -1.009053179E+02  1.166470293E+02  1.907348633E-06  0.00000E+00  9.000E+00
     -14     1     6     6     0     0  5.684069348E+01  3.514424818E+01 -3.421135473E+01  7.507595758E+01  1.507891493E-06  0.00000E+00  9.000E+00
       5     1     3     3   502     0 -6.750365275E+01 -4.709771223E+01  2.887113596E+01  8.735583909E+01  4.750000000E+00  0.00000E+00  9.000E+00
      -5     1     4     4     0   512 -1.570232039E+01  4.759572101E+01 -1.572272797E+02  1.650905676E+02  4.750000000E+00  0.00000E+00  9.000E+00
      21     1     1     2   512   513 -4.045791023E+00  2.284167135E+01  8.804089689E+01  9.104564735E+01  1.348699152E-06  0.00000E+00  9.000E+00
</event>
<event>
     13  10001  1.00000E+00  9.15364E+01 -1.00000E+00  1.28039E-01
      21    -1     0     0   503   504  0.000000000E+00  0.000000000E+00  5.125516003E+01  5.125516003E+01  0.000000000E+00  0.00000E+00  9.000E+00
      -2    -1     0     0     0   503  0.000000000E+00  0.000000000E+00 -1.310395555E+03  1.310395555E+03  0.000000000E+00  0.00000E+00  9.000E+00
       6     2     1     2   502     0  6.394752857E+01 -2.026561679E+01 -2.193295692E+02  2.866870098E+02  1.720000000E+02  0.00000E+00  9.000E+00
      -6     2     1     2     0   504  1.071430835E+01 -3.269208049E+01 -5.723553427E+02  5.986302756E+02  1.720000000E+02  0.00000E+00  9.000E+00
      24     2     3     3     0     0 -5.654637328E+00 -2.846352101E+01 -1.938430266E+02  2.119622248E+02  8.068902545E+01  0.00000E+00  9.000E+00
     -24     2     4     4     0     0  8.416392205E-01 -5.348483507E+00 -5.620920456E+02  5.674366920E+02  7.750881934E+01  0.00000E+00  9.000E+00
     -11     1     5     5     0     0  3.600509433E+01 -4.257273963E+00 -1.019316596E+02  1.081875891E+02  1.348699152E-06  0.00000E+00  9.000E+00
      12     1     5     5     0     0 -4.165973165E+01 -2.420624705E+01 -9.191136701E+01  1.037746357E+02  1.348699152E-06  0.00000E+00  9.000E+00
      13     1     6     6     0     0  7.178558325E+00  3.396019533E+01 -1.832798294E+02  1.865377239E+02  2.697398305E-06  0.00000E+00  9.000E+00
     -14     1     6     6     0     0 -6.336919104E+00 -3.930867884E+01 -3.788122161E+02  3.808989680E+02  0.000000000E+00  0.00000E+00  9.000E+00
       5     1     3     3   502     0  6.960216590E+01  8.197904226E+00 -2.548654260E+01  7.472478494E+01  4.750000000E+00  0.00000E+00  9.000E+00
      -5     1     4     4     0   504  9.872669125E+00 -2.734359698E+01 -1.026329716E+01  3.119358364E+01  4.750000000E+00  0.00000E+00  9.000E+00
      -2     1     1     2     0   502 -7.466183692E+01  5.295769728E+01 -4.674554828E+02  4.763334295E+02  5.394796609E-06  0.00000E+00  9.000E+00
</event>
<event>
     13  10001  1.00000E+00  1.60502E+01 -1.00000E+00  1.79547E-01
      21    -1     0     0   511   503  0.000000000E+00  0.000000000E+00  4.357267714E+01  4.357267714E+01  0.000000000E+00  0.00000E+00  9.000E+00
      21    -1     0     0   503   504  0.000000000E+00  0.000000000E+00 -9.184169580E+02  9.184169580E+02  0.000000000E+00  0.00000E+00  9.000E+00
       6     2     1     2   502     0  2.598589410E+01  3.489560789E+00 -2.289195757E+02  2.875336778E+02  1.720000000E+02  0.00000E+00  9.000E+00
      -6     2     1     2     0   504 -1.008708070E+01 -5.689022002E+00 -6.234090670E+02  6.468052095E+02  1.720000000E+02  0.00000E+00  9.000E+00
      24     2     3     3     0     0  4.143840895E+01  6.632200276E+01 -1.457100501E+02  1.820202491E+02  7.605394534E+01  0.00000E+00  9.000E+00
     -24     2     4     4     0     0 -1.765270493E+00 -6.055270888E+01 -2.565755776E+02  2.757679498E+02  8.091469796E+01  0.00000E+00  9.000E+00
     -11     1     5     5     0     0 -1.645941726E+01  2.381051857E+01 -1.435728986E+01  3.231075646E+01  1.526623782E-06  0.00000E+00  9.000E+00
      12     1     5     5     0     0  5.789782621E+01  4.251148419E+01 -1.313527602E+02  1.497094927E+02  4.264961200E-06  0.00000E+00  9.000E+00
      13     1     6     6     0     0  3.763834444E+01 -3.994633300E+01 -1.160371708E+02  1.283626873E+02  1.348699152E-06  0.00000E+00  9.000E+00
     -14     1     6     6     0     0 -3.940361493E+01 -2.060637588E+01 -1.405384068E+02  1.474052624E+02  2.697398305E-06  0.00000E+00  9.000E+00
       5     1     3     3   502     0 -1.545251486E+01 -6.283244197E+01 -8.320952563E+01  1.055134287E+02  4.750000000E+00  0.00000E+00  9.000E+00
      -5     1     4     4     0   504 -8.321810207E+00  5.486368688E+01 -3.668334894E+02  3.710372598E+02  4.750000000E+00  0.00000E+00  9.000E+00
      21     1     1     2   511   502 -1.589881340E+01  2.199461213E+00 -2.251563812E+01  2.765074785E+01  3.371747881E-07  0.00000E+00  9.000E+00
</event>
<event>
     13  10001  1.00000E+00  5.64537E+01 -1.00000E+00  1.39038E-01
      21    -1     0     0   503   512  0.000000000E+00  0.000000000E+00  4.051059944E+02  4.051059944E+02  0.000000000E+00  0.00000E+00  9.000E+00
      21    -1     0     0   502   503  0.000000000E+00  0.000000000E+00 -1.332218007E+03  1.332218007E+03  0.000000000E+00  0.00000E+00  9.000E+00
       6     2     1     2   502     0 -2.771216355E+02  3.958152213E+01  2.216167027E+02  3.963092992E+02  1.720000000E+02  0.00000E+00  9.000E+00
      -6     2     1     2     0   504  2.929331747E+02 -9.377576589E+01 -1.208479229E+03  1.258812848E+03  1.720000000E+02  0.00000E+00  9.000E+00
      24     2     3     3     0     0 -1.593142505E+02 -2.483158043E+01  1.811761400E+02  2.560038134E+02  8.194828240E+01  0.00000E+00  9.000E+00
     -24     2     4     4     0     0  3.106480910E+02 -8.414484264E+01 -1.132285485E+03  1.179853225E+03  8.000388595E+01  0.00000E+00  9.000E+00
     -11     1     5     5     0     0  7.968255198E+00 -2.897432191E-01  2.350297894E+01  2.481868371E+01  1.261592536E-06  0.00000E+00  9.000E+00
      12     1     5     5     0     0 -1.672825057E+02 -2.454183721E+01  1.576731610E+02  2.311851297E+02  2.697398305E-06  0.00000E+00  9.000E+00
      13     1     6     6     0     0  7.601749797E+01  1.368456877E+01 -2.810476300E+02  2.914681763E+02  5.394796609E-06  0.00000E+00  9.000E+00
     -14     1     6     6     0     0  2.346305930E+02 -9.782941141E+01 -8.512378549E+02  8.883850485E+02  1.525878906E-05  0.00000E+00  9.000E+00
       5     1     3     3   502     0 -1.178073850E+02  6.441310256E+01  4.044056272E+01  1.403054858E+02  4.750000000E+00  0.00000E+00  9.000E+00
      -5     1     4     4     0   504 -1.771491627E+01 -9.630923243E+00 -7.619374429E+01  7.895962329E+01  4.750000000E+00  0.00000E+00  9.000E+00
      21     1     1     2   504   512 -1.581153923E+01  5.419424375E+01  5.975051413E+01  8.220185380E+01  9.536743164E-07  0.00000E+00  9.000E+00
</event>
<event>
     13  10001  1.00000E+00  7.13605E+00 -1.00000E+00  2.21922E-01
      -2    -1     0     0     0   512  0.000000000E+00  0.000000000E+00  1.122478973E+02  1.122478973E+02  0.000000000E+00  0.00000E+00  9.000E+00
       2    -1     0     0   511     0  0.000000000E+00  0.000000000E+00 -5.675952780E+02  5.675952780E+02  0.000000000E+00  0.00000E+00  9.000E+00
       6     2     1     2   502     0  3.426358280E+01  1.401511841E+01 -4.172750915E+02  4.528497749E+02  1.720000000E+02  0.00000E+00  9.000E+00
      -6     2     1     2     0   512 -3.978443903E+01 -1.853655462E+01  1.057412602E+01  1.778263692E+02  1.720000000E+02  0.00000E+00  9.000E+00
      24     2     3     3     0     0  1.392484717E+01  3.353233225E+01 -9.486392480E+01  1.291738433E+02  7.980224861E+01  0.00000E+00  9.000E+00
     -24     2     4     4     0     0 -1.353903905E+01 -8.269022923E+00 -6.005617986E+01  1.016328929E+02  8.044139393E+01  0.00000E+00  9.000E+00
     -11     1     5     5     0     0  1.089197093E+01  1.039157059E+00  1.270298343E+01  1.676546051E+01  6.529361695E-07  0.00000E+00  9.000E+00
      12     1     5     5     0     0  3.032876246E+00  3.249317519E+01 -1.075669082E+02  1.124083828E+02  2.697398305E-06  0.00000E+00  9.000E+00
      13     1     6     6     0     0 -1.438941180E+01 -4.367589696E+01 -2.784355545E+01  5.375781550E+01  4.768371582E-07  0.00000E+00  9.000E+00
     -14     1     6     6     0     0  8.503727481E-01  3.540687404E+01 -3.221262441E+01  4.787507738E+01  4.768371582E-07  0.00000E+00  9.000E+00
       5     1     3     3   502     0  2.033873563E+01 -1.951721384E+01 -3.224111667E+02  3.236759317E+02  4.750000000E+00  0.00000E+00  9.000E+00
      -5     1     4     4     0   512 -2.624539998E+01 -1.026753170E+01  7.063030588E+01  7.619347633E+01  4.750000000E+00  0.00000E+00  9.000E+00
      21     1     1     2   511   502  5.520856225E+00  4.521436210E+00 -4.864641523E+01  4.916703117E+01  0.000000000E+00  0.00000E+00  9.000E+00
</event>
<event>
     13  10001  1.00000E+00  5.99370E+00 -1.00000E+00  2.33951E-01
      21    -1     0     0   512   504  0.000000000E+00  0.000000000E+00  1.045255599E+03  1.045255599E+03  0.000000000E+00  0.00000E+00  9.000E+00
      21    -1     0     0   502   503  0.000000000E+00  0.000000000E+00 -5.137641717E+01  5.137641717E+01  0.000000000E+00  0.00000E+00  9.000E+00
       6     2     1     2   502     0 -3.480732295E+01 -2.889616690E+01  8.161374208E+02  8.352908642E+02  1.720000000E+02  0.00000E+00  9.000E+00
      -6     2     1     2     0   504  3.483427991E+01  3.488981118E+01  1.515814805E+02  2.345030303E+02  1.720000000E+02  0.00000E+00  9.000E+00
      24     2     3     3     0     0  3.968707239E+00 -7.261030578E+01  6.627968207E+02  6.711250682E+02  7.629694897E+01  0.00000E+00  9.000E+00
     -24     2     4     4     0     0  3.938548527E+01 -3.898895958E+01  1.210733471E+02  1.543026877E+02  7.796928020E+01  0.00000E+00  9.000E+00
     -11     1     5     5     0     0 -3.453598095E+01 -4.805957442E+01  3.396217426E+02  3.447395897E+02  0.000000000E+00  0.00000E+00  9.000E+00
      12     1     5     5     0     0  3.850468819E+01 -2.455073137E+01  3.231750782E+02  3.263854785E+02  0.000000000E+00  0.00000E+00  9.000E+00
      13     1     6     6     0     0 -1.686761301E+01 -3.433987614E+01  3.846762000E+01  5.425404363E+01  1.784161275E-06  0.00000E+00  9.000E+00
     -14     1     6     6     0     0  5.625309828E+01 -4.649083431E+00  8.260572705E+01  1.000486441E+02  9.536743164E-07  0.00000E+00  9.000E+00
       5     1     3     3   502     0 -3.877603019E+01  4.371413888E+01  1.533406001E+02  1.641657960E+02  4.750000000E+00  0.00000E+00  9.000E+00
      -5     1     4     4     0   504 -4.551205359E+00  7.387877076E+01  3.050813344E+01  8.020034255E+01  4.750000000E+00  0.00000E+00  9.000E+00
      21     1     1     2   512   503 -2.695696391E-02 -5.993644282E+00  2.616028072E+01  2.683812188E+01  3.371747881E-07  0.00000E+00  9.000E+00
</event>
<event>
     13  10001  1.00000E+00  8.04016E+01 -1.00000E+00  1.30812E-01
      21    -1     0     0   511   504  0.000000000E+00  0.000000000E+00  1.162383816E+03  1.162383816E+03  0.000000000E+00  0.00000E+00  9.000E+00
      21    -1     0     0   502   503  0.000000000E+00  0.000000000E+00 -5.392502724E+01  5.392502724E+01  0.000000000E+00  0.00000E+00  9.000E+00
       6     2     1     2   502     0  1.727381381E+01  5.864726959E+01  6.697275938E+02  6.941591581E+02  1.720000000E+02  0.00000E+00  9.000E+00
      -6     2     1     2     0   504 -7.264727138E+01 -3.531711155E-01  2.168849838E+02  2.861832402E+02  1.720000000E+02  0.00000E+00  9.000E+00
      24     2     3     3     0     0  5.936221527E+01  2.402616845E+01  2.385354531E+02  2.595107037E+02  7.965873205E+01  0.00000E+00  9.000E+00
     -24     2     4     4     0     0 -1.107703094E+02  2.170650914E+01  1.154276630E+02  1.754757609E+02  6.875291484E+01  0.00000E+00  9.000E+00
     -11     1     5     5     0     0 -2.751346046E+00 -7.755754222E+00  1.314065104E+02  1.316639381E+02  0.000000000E+00  0.00000E+00  9.000E+00
      12     1     5     5     0     0  6.211356132E+01  3.178192267E+01  1.071289427E+02  1.278467656E+02  0.000000000E+00  0.00000E+00  9.000E+00
      13     1     6     6     0     0 -9.659562845E+01 -4.407796119E+00  1.077706117E+02  1.447917431E+02  2.336015456E-06  0.00000E+00  9.000E+00
     -14     1     6     6     0     0 -1.417468097E+01  2.611430525E+01  7.657051290E+00  3.068401789E+01  4.915124924E-07  0.00000E+00  9.000E+00
       5     1     3     3   502     0 -4.208840147E+01  3.462110114E+01  4.311921408E+02  4.346484544E+02  4.750000000E+00  0.00000E+00  9.000E+00
      -5     1     4     4     0   504  3.812303804E+01 -2.205968025E+01  1.014573208E+02  1.107074793E+02  4.750000000E+00  0.00000E+00  9.000E+00
      21     1     1     2   511   503  5.537345757E+01 -5.829409848E+01  2.218462107E+02  2.359664445E+02  4.672030912E-06  0.00000E+00  9.000E+00
</event>
<event>
     13  10001  1.00000E+00  9.38562E+01 -1.00000E+00  1.27517E-01
      21    -1     0     0   503   504  0.000000000E+00  0.000000000E+00  2.234762054E+02  2.234762054E+02  0.000000000E+00  0.00000E+00  9.000E+00
      -5    -1     0     0     0   503  0.000000000E+00  0.000000000E+00 -4.420478438E+02  4.420478438E+02  0.000000000E+00  0.00000E+00  9.000E+00
       6     2     1     2   502     0 -1.354066934E+02  9.723177730E+01  1.577275979E+01  2.400453522E+02  1.720000000E+02  0.00000E+00  9.000E+00
      -6     2     1     2     0   504  1.048228173E+02 -8.498383821E+00 -3.428611577E+01  2.044983699E+02  1.720000000E+02  0.00000E+00  9.000E+00
      24     2     3     3     0     0 -1.463698107E+02  5.176778300E+01  5.045685513E+01  1.816269160E+02  7.961417925E+01  0.00000E+00  9.000E+00
     -24     2     4     4     0     0  2.419946919E+01  4.915152404E+01 -3.968725940E+01  1.051234687E+02  8.046352271E+01  0.00000E+00  9.000E+00
     -11     1     5     5     0     0 -1.014079635E+02  1.071106346E+01  6.244232565E+01  1.195715099E+02  3.015782986E-06  0.00000E+00  9.000E+00
      12     1     5     5     0     0 -4.496184721E+01  4.105671954E+01 -1.198547052E+01  6.205540611E+01  1.517286546E-06  0.00000E+00  9.000E+00
      13     1     6     6     0     0 -1.973935806E+01 -1.044435515E+01 -3.138424240E+00  2.255164113E+01  7.725644944E-07  0.00000E+00  9.000E+00
     -14     1     6     6     0     0  4.393882724E+01  5.959587919E+01 -3.654883516E+01  8.257182757E+01  2.611744678E-06  0.00000E+00  9.000E+00
       5     1     3     3   502     0  1.096311725E+01  4.546399430E+01 -3.468409535E+01  5.841843620E+01  4.750000000E+00  0.00000E+00  9.000E+00
      -5     1     4     4     0   504  8.062334808E+01 -5.764990786E+01  5.401143629E+00  9.937490118E+01  4.750000000E+00  0.00000E+00  9.000E+00
      -5     1     1     2     0   502  3.058387618E+01 -8.873339348E+01 -2.000582825E+02  2.209803271E+02  2.697398305E-06  0.00000E+00  9.000E+00
</event>
<event>
     13  10001  1.00000E+00  7.50260E+01 -1.00000E+00  1.32342E-01
      21    -1     0     0   503   511  0.000000000E+00  0.000000000E+00  7.278976641E+01  7.278976641E+01  0.000000000E+00  0.00000E+00  9.000E+00
      21    -1     0     0   502   503  0.000000000E+00  0.000000000E+00 -9.695931325E+02  9.695931325E+02  0.000000000E+00  0.00000E+00  9.000E+00
       6     2     1     2   502     0  8.565409278E+01 -8.663483527E+01 -2.536192733E+02  3.297710631E+02  1.720000000E+02  0.00000E+00  9.000E+00
      -6     2     1     2     0   504 -3.320206810E+01  3.299071533E+01 -6.002736180E+02  6.261814283E+02  1.720000000E+02  0.00000E+00  9.000E+00
      24     2     3     3     0     0 -1.865897461E+01 -5.368619861E+01 -1.562276782E+02  1.832292125E+02  7.704214192E+01  0.00000E+00  9.000E+00
     -24     2     4     4     0     0 -8.469183028E+01  3.951731719E+01 -3.598489129E+02  3.801724986E+02  7.940758219E+01  0.00000E+00  9.000E+00
     -11     1     5     5     0     0 -1.910500686E+01  8.208343002E+00 -9.085043904E+01  9.319968056E+01  0.000000000E+00  0.00000E+00  9.000E+00
      12     1     5     5     0     0  4.460322541E-01 -6.189454161E+01 -6.537723916E+01  9.002953197E+01  1.651812370E-06  0.00000E+00  9.000E+00
      13     1     6     6     0     0 -1.432329761E+01 -1.339971550E+00 -2.026729061E+02  2.031828222E+02  2.697398305E-06  0.00000E+00  9.000E+00
     -14     1     6     6     0     0 -7.036853267E+01  4.085728874E+01 -1.571760068E+02  1.769896763E+02  1.907348633E-06  0.00000E+00  9.000E+00
       5     1     3     3   502     0  1.043130674E+02 -3.294863666E+01 -9.739159510E+01  1.465418506E+02  4.750000000E+00  0.00000E+00  9.000E+00
      -5     1     4     4     0   504  5.148976219E+01 -6.526601859E+00 -2.404247051E+02  2.460089297E+02  4.750000000E+00  0.00000E+00  9.000E+00
      21     1     1     2   504   511 -5.245202468E+01  5.364411994E+01 -4.291047479E+01  8.643040752E+01  1.261592536E-06  0.00000E+00  9.000E+00
</event>
<event>
     13  10001  1.00000E+00  5.86436E+01 -1.00000E+00  1.38102E-01
      21    -1     0     0   503   504  0.000000000E+00  0.000000000E+00  2.791811497E+02  2.791811497E+02  0.000000000E+00  0.00000E+00  9.000E+00
      21    -1     0     0   512   503  0.000000000E+00  0.000000000E+00 -7.667934911E+02  7.667934911E+02  0.000000000E+00  0.00000E+00  9.000E+00
       6     2     1     2   502     0 -2.876429034E+02 -1.916909496E+02 -9.492002760E+01  3.975898285E+02  1.720000000E+02  0.00000E+00  9.000E+00
      -6     2     1     2     0   504  2.449546189E+02  2.319001253E+02 -1.645837478E+02  4.128586241E+02  1.720000000E+02  0.00000E+00  9.000E+00
      24     2     3     3     0     0 -1.673695714E+02 -5.266154185E+01 -9.281036003E+01  2.136826132E+02  7.912448950E+01  0.00000E+00  9.000E+00
     -24     2     4     4     0     0  2.597177609E+02  2.363256442E+02 -1.477500564E+02  3.895461543E+02  8.132036477E+01  0.00000E+00  9.000E+00
     -11     1     5     5     0     0 -1.304761257E+02 -5.622525033E+01 -1.027161647E+02  1.753165954E+02  2.697398305E-06  0.00000E+00  9.000E+00
      12     1     5     5     0     0 -3.689344575E+01  3.563708480E+00  9.905804632E+00  3.836601781E+01  3.576278687E-07  0.00000E+00  9.000E+00
      13     1     6     6     0     0  1.255232917E+02  1.444204489E+02 -1.161992884E+02  2.238652216E+02  6.180515955E-06  0.00000E+00  9.000E+00
     -14     1     6     6     0     0  1.341944692E+02  9.190519529E+01 -3.155076793E+01  1.656809327E+02  2.759894586E-06  0.00000E+00  9.000E+00
       5     1     3     3   502     0 -1.202733320E+02 -1.390294078E+02 -2.109667567E+00  1.839072153E+02  4.750000000E+00  0.00000E+00  9.000E+00
      -5     1     4     4     0   504 -1.476314207E+01 -4.425518820E+00 -1.683369144E+01  2.331246980E+01  4.750000000E+00  0.00000E+00  9.000E+00
      21     1     1     2   512   502  4.268828457E+01 -4.020917570E+01 -2.281085660E+02  2.355261882E+02  2.697398305E-06  0.00000E+00  9.000E+00
</event>
<event>
     13  10001  1.00000E+00  7.28797E+01 -1.00000E+00  1.32995E-01
      21    -1     0     0   503   504  0.000000000E+00  0.000000000E+00  3.934986949E+02  3.934986949E+02  0.000000000E+00  0.00000E+00  9.000E+00
       2    -1     0     0   502     0  0.000000000E+00  0.000000000E+00 -7.726451839E+02  7.726451839E+02  0.000000000E+00  0.00000E+00  9.000E+00
       6     2     1     2   502     0  1.842602892E+01 -1.099628414E+02 -5.209446345E+02  5.598202008E+02  1.720000000E+02  0.00000E+00  9.000E+00
      -6     2     1     2     0   504 -8.717324331E+01  1.341552074E+02  3.296763604E+02  4.048052577E+02  1.720000000E+02  0.00000E+00  9.000E+00
      24     2     3     3     0     0  1.168020821E+01 -4.689970936E+01 -1.120686946E+02  1.460273040E+02  8.017837116E+01  0.00000E+00  9.000E+00
     -24     2     4     4     0     0 -1.145871510E+02  1.475944119E+02  2.765805986E+02  3.433735316E+02  8.058677964E+01  0.00000E+00  9.000E+00
     -11     1     5     5     0     0 -2.581348671E+01  3.329285040E+00 -5.672537253E+01  6.241144225E+01  9.536743164E-07  0.00000E+00  9.000E+00
      12     1     5     5     0     0  3.749369492E+01 -5.022899440E+01 -5.534332202E+01  8.361586172E+01  9.536743164E-07  0.00000E+00  9.000E+00
      13     1     6     6     0     0 -7.432796170E+01  1.420571570E+02  2.404270112E+02  2.889810192E+02  3.814697266E-06  0.00000E+00  9.000E+00
     -14     1     6     6     0     0 -4.025918932E+01  5.537254838E+00  3.615358742E+01  5.439251235E+01  2.567846683E-06  0.00000E+00  9.000E+00
       5     1     3     3   502     0  6.745820705E+00 -6.306313204E+01 -4.088759399E+02  4.137928969E+02  4.750000000E+00  0.00000E+00  9.000E+00
      -5     1     4     4     0   504  2.741390772E+01 -1.343920444E+01  5.309576183E+01  6.143172614E+01  4.750000000E+00  0.00000E+00  9.000E+00
       2     1     1     2   503     0  6.874721439E+01 -2.419236605E+01 -1.878782149E+02  2.015184203E+02  2.697398305E-06  0.00000E+00  9.000E+00
</event>
<event>
     13  10001  1.00000E+00  1.35197E+01 -1.00000E+00  1.87058E-01
      21    -1     0     0   511   503  0.000000000E+00  0.000000000E+00  1.713141435E+02  1.713141435E+02  0.000000000E+00  0.00000E+00  9.000E+00
      21    -1     0     0   503   504  0.000000000E+00  0.000000000E+00 -3.822669574E+02  3.822669574E+02  0.000000000E+00  0.00000E+00  9.000E+00
       6     2     1     2   502     0 -2.373088957E+01 -1.601289124E+02 -2.032882370E+02  3.116320442E+02  1.720000000E+02  0.00000E+00  9.000E+00
      -6     2     1     2     0   504  2.828899107E+01  1.474007784E+02 -6.373264414E+00  2.283678502E+02  1.720000000E+02  0.00000E+00  9.000E+00
      24     2     3     3     0     0  8.896570028E+00 -1.163895846E+02 -5.221886042E+01  1.509391728E+02  8.018815446E+01  0.00000E+00  9.000E+00
     -24     2     4     4     0     0  7.546466780E+01  4.353961701E+01 -1.183555219E+01  1.140652500E+02  7.266489263E+01  0.00000E+00  9.000E+00
     -11     1     5     5     0     0 -3.486089233E+01 -3.615212903E+01 -1.899198975E+01  5.369314595E+01  1.039242493E-06  0.00000E+00  9.000E+00
      12     1     5     5     0     0  4.375746235E+01 -8.023745561E+01 -3.322687066E+01  9.724602680E+01  2.185142372E-06  0.00000E+00  9.000E+00
      13     1     6     6     0     0  5.528134986E+01  5.254447891E+01  1.659636129E+01  7.805375785E+01  2.299225512E-06  0.00000E+00  9.000E+00
     -14     1     6     6     0     0  2.018331794E+01 -9.004861900E+00 -2.843191349E+01  3.601149213E+01  4.768371582E-07  0.00000E+00  9.000E+00
       5     1     3     3   502     0 -3.262745960E+01 -4.373932774E+01 -1.510693766E+02  1.606928715E+02  4.750000000E+00  0.00000E+00  9.000E+00
      -5     1     4     4     0   504 -4.717567673E+01  1.038611614E+02  5.462287778E+00  1.143026002E+02  4.750000000E+00  0.00000E+00  9.000E+00
      21     1     1     2   511   502 -4.558101506E+00  1.272813398E+01 -1.291312483E+00  1.358120657E+01  1.555726902E-07  0.00000E+00  9.000E+00
</event>
<event>
     13  10001  1.00000E+00  3.80075E+01 -1.00000E+00  1.49601E-01
      21    -1     0     0   512   503  0.000000000E+00  0.000000000E+00  1.200728606E+02  1.200728606E+02  0.000000000E+00  0.00000E+00  9.000E+00
      21    -1     0     0   503   504  0.000000000E+00  0.000000000E+00 -6.094305692E+02  6.094305692E+02  0.000000000E+00  0.00000E+00  9.000E+00
       6     2     1     2   502     0 -3.355657079E+01 -2.959795654E+01 -4.842580844E+02  5.158410364E+02  1.720000000E+02  0.00000E+00  9.000E+00
      -6     2     1     2     0   504 -4.138639025E+00  2.473582829E+01 -1.476613800E+01  1.744449150E+02  1.720000000E+02  0.00000E+00  9.000E+00
      24     2     3     3     0     0 -1.068365252E+01 -5.037417992E+01 -1.416269129E+02  1.717865290E+02  8.246654263E+01  0.00000E+00  9.000E+00
     -24     2     4     4     0     0 -2.923081460E+01  7.112894000E+01  1.776153363E+01  1.122954982E+02  7.988141340E+01  0.00000E+00  9.000E+00
     -11     1     5     5     0     0 -3.087476534E+01 -6.253540023E+01 -8.186573642E+01  1.075449962E+02  2.336015456E-06  0.00000E+00  9.000E+00
      12     1     5     5     0     0  2.019111282E+01  1.216122031E+01 -5.976117650E+01  6.424153277E+01  9.536743164E-07  0.00000E+00  9.000E+00
      13     1     6     6     0     0  2.143771651E+01  8.246126352E+00 -1.238584115E+01  2.609565768E+01  6.307962682E-07  0.00000E+00  9.000E+00
     -14     1     6     6     0     0 -5.066853110E+01  6.288281365E+01  3.014737477E+01  8.619984050E+01  1.215700987E-06  0.00000E+00  9.000E+00
       5     1     3     3   502     0 -2.287291826E+01  2.077622338E+01 -3.426311715E+02  3.440545073E+02  4.750000000E+00  0.00000E+00  9.000E+00
      -5     1     4     4     0   504  2.509217557E+01 -4.639311171E+01 -3.252767162E+01  6.214941681E+01  4.750000000E+00  0.00000E+00  9.000E+00
      21     1     1     2   512   502  3.769520981E+01  4.862128243E+00  9.666513802E+00  3.921747854E+01  4.460403188E-07  0.00000E+00  9.000E+00
</event>
<event>
     13  10001  1.00000E+00  8.67369E+00 -1.00000E+00  2.09912E-01
      21    -1     0     0   503   511  0.000000000E+00  0.000000000E+00  1.086019239E+02  1.086019239E+02  0.000000000E+00  0.00000E+00  9.000E+00
      21    -1     0     0   502   503  0.000000000E+00  0.000000000E+00 -4.716998524E+02  4.716998524E+02  0.000000000E+00  0.00000E+00  9.000E+00
       6     2     1     2   502     0  7.273991858E+01 -8.717332820E+00 -3.325633618E+02  3.815094720E+02  1.720000000E+02  0.00000E+00  9.000E+00
      -6     2     1     2     0   504 -7.310656143E+01  5.139268941E-02 -3.298222406E+01  1.897798700E+02  1.720000000E+02  0.00000E+00  9.000E+00
      24     2     3     3     0     0  4.027632912E+01 -3.215915963E+01 -3.213404922E+02  3.396535383E+02  9.720298312E+01  0.00000E+00  9.000E+00
     -24     2     4     4     0     0 -1.989459362E+01  4.311495657E+00  2.544133702E+01  1.104984915E+02  1.055853737E+02  0.00000E+00  9.000E+00
     -11     1     5     5     0     0  2.903841452E+01 -3.215767319E+01 -4.285619586E+01  6.094258762E+01  1.581489940E-06  0.00000E+00  9.000E+00
      12     1     5     5     0     0  1.123791460E+01 -1.486445719E-03 -2.784842963E+02  2.787109507E+02  6.607249480E-06  0.00000E+00  9.000E+00
      13     1     6     6     0     0  1.588100218E+00  4.716013693E+01 -1.312381063E+01  4.897790301E+01  9.078709013E-07  0.00000E+00  9.000E+00
     -14     1     6     6     0     0 -2.148269384E+01 -4.284864127E+01  3.856514765E+01  6.152058848E+01  0.000000000E+00  0.00000E+00  9.000E+00
       5     1     3     3   502     0  3.246358946E+01  2.344182681E+01 -1.122286958E+01  4.185593371E+01  4.750000000E+00  0.00000E+00  9.000E+00
      -5     1     4     4     0   504 -5.321196781E+01 -4.260102967E+00 -5.842356108E+01  7.928137855E+01  4.750000000E+00  0.00000E+00  9.000E+00
      21     1     1     2   504   511  3.666428562E-01  8.665940131E+00  2.447657316E+00  9.012434281E+00  1.976862425E-07  0.00000E+00  9.000E+00
</event>
<event>
     13  10001  1.00000E+00  4.74964E+01 -1.00000E+00  1.43456E-01
      21    -1     0     0   502   503  0.000000000E+00  0.000000000E+00  8.190922227E+01  8.190922227E+01  0.000000000E+00  0.00000E+00  9.000E+00
      21    -1     0     0   512   504  0.000000000E+00  0.000000000E+00 -7.533111142E+02  7.533111142E+02  0.000000000E+00  0.00000E+00  9.000E+00
       6     2     1     2   502     0  1.024989206E+01 -5.571449487E+01 -8.737769866E+01  2.010672212E+02  1.720000000E+02  0.00000E+00  9.000E+00
      -6     2     1     2     0   504 -4.407333802E+01  8.905941271E+01 -4.476103706E+02  4.897071390E+02  1.720000000E+02  0.00000E+00  9.000E+00
      24     2     3     3     0     0  2.417034527E+01  3.234727976E+01 -4.479590220E+01  1.021509584E+02  8.244751870E+01  0.00000E+00  9.000E+00
     -24     2     4     4     0     0 -2.469908899E+00  4.228119435E+01 -8.952869951E+01  1.261633415E+02  7.815370021E+01  0.00000E+00  9.000E+00
     -11     1     5     5     0     0 -2.387496307E+01 -9.825981350E+00 -2.309154636E+01  3.463788799E+01  1.168007728E-06  0.00000E+00  9.000E+00
      12     1     5     5     0     0  4.804530835E+01  4.217326111E+01 -2.170435584E+01  6.751307036E+01  6.307962682E-07  0.00000E+00  9.000E+00
      13     1     6     6     0     0  1.012484013E+01 -1.911784809E+01 -7.429291650E+00  2.287354100E+01  9.536743164E-07  0.00000E+00  9.000E+00
     -14     1     6     6     0     0 -1.259474903E+01  6.139904245E+01 -8.209940786E+01  1.032898005E+02  1.348699152E-06  0.00000E+00  9.000E+00
       5     1     3     3   502     0 -1.392045322E+01 -8.806177463E+01 -4.258179646E+01  9.891626286E+01  4.750000000E+00  0.00000E+00  9.000E+00
      -5     1     4     4     0   504 -4.160342912E+01  4.677821836E+01 -3.580816711E+02  3.635437975E+02  4.750000000E+00  0.00000E+00  9.000E+00
      21     1     1     2   512   503  3.382344596E+01 -3.334491784E+01 -1.364138227E+02  1.444459763E+02  0.000000000E+00  0.00000E+00  9.000E+00
</event>
<event>
     13  10001  1.00000E+00  4.03868E+01 -1.00000E+00  1.47874E-01
      21    -1     0     0   503   504  0.000000000E+00  0.000000000E+00  9.162491315E+02  9.162491315E+02  0.000000000E+00  0.00000E+00  9.000E+00
      21    -1     0     0   511   503  0.000000000E+00  0.000000000E+00 -1.983191866E+02  1.983191866E+02  0.000000000E+00  0.00000E+00  9.000E+00
       6     2     1     2   502     0  5.156294671E+00  1.058391881E+02 -4.431868301E+01  2.068252083E+02  1.720000000E+02  0.00000E+00  9.000E+00
      -6     2     1     2     0   504  1.565903363E+01 -7.122969078E+01  8.179088627E+02  8.389742438E+02  1.720000000E+02  0.00000E+00  9.000E+00
      24     2     3     3     0     0  6.557029927E+01  5.637089740E+01 -3.919519594E+00  1.187819312E+02  8.134274596E+01  0.00000E+00  9.000E+00
     -24     2     4     4     0     0 -1.658745136E+01 -1.057029350E+02  5.043780038E+02  5.218742559E+02  8.066792587E+01  0.00000E+00  9.000E+00
     -11     1     5     5     0     0  4.017394559E+01  3.583556876E+01  3.781412815E+01  6.578785739E+01  1.066240300E-06  0.00000E+00  9.000E+00
      12     1     5     5     0     0  2.539635368E+01  2.053532864E+01 -4.173364774E+01  5.299407379E+01  9.536743164E-07  0.00000E+00  9.000E+00
      13     1     6     6     0     0  2.555761481E+01 -5.797198849E+01  1.685704728E+02  1.800831681E+02  1.907348633E-06  0.00000E+00  9.000E+00
     -14     1     6     6     0     0 -4.214506617E+01 -4.773094656E+01  3.358075310E+02  3.417910878E+02  5.394796609E-06  0.00000E+00  9.000E+00
       5     1     3     3   502     0 -6.041400460E+01  4.946829070E+01 -4.039916341E+01  8.804327709E+01  4.750000000E+00  0.00000E+00  9.000E+00
      -5     1     4     4     0   504  3.224648500E+01  3.447324427E+01  3.135308589E+02  3.170999879E+02  4.750000000E+00  0.00000E+00  9.000E+00
      21     1     1     2   511   502 -2.081532831E+01 -3.460949732E+01 -5.566023478E+01  6.876886602E+01  1.651812370E-06  0.00000E+00  9.000E+00
</event>
<event>
     13  10001  1.00000E+00  1.02364E+01 -1.00000E+00  2.00731E-01
      21    -1     0     0   512   503  0.000000000E+00  0.000000000E+00  6.390726963E+02  6.390726963E+02  0.000000000E+00  0.00000E+00  9.000E+00
      21    -1     0     0   503   504  0.000000000E+00  0.000000000E+00 -1.830272478E+02  1.830272478E+02  0.000000000E+00  0.00000E+00  9.000E+00
       6     2     1     2   502     0  7.113110902E+01 -1.550365385E+02 -6.072167795E+01  2.497340287E+02  1.720000000E+02  0.00000E+00  9.000E+00
      -6     2     1     2     0   504 -6.349851772E+01  1.482153895E+02  4.980200464E+02  5.510061978E+02  1.720000000E+02  0.00000E+00  9.000E+00
      24     2     3     3     0     0  1.005879541E+02 -7.874573377E+01 -6.755564491E+01  1.675314849E+02  8.475969663E+01  0.00000E+00  9.000E+00
     -24     2     4     4     0     0 -4.243439189E+01  1.774383448E+02  4.278275737E+02  4.719668138E+02  8.019474215E+01  0.00000E+00  9.000E+00
     -11     1     5     5     0     0 -9.956146438E+00 -2.038383035E+01 -2.879097234E+01  3.665440601E+01  1.215700987E-06  0.00000E+00  9.000E+00
      12     1     5     5     0     0  1.105441006E+02 -5.836190342E+01 -3.876467257E+01  1.308770789E+02  3.337860107E-06  0.00000E+00  9.000E+00
      13     1     6     6     0     0 -5.696657892E+01  6.728545424E+01  1.859602797E+02  2.058002650E+02  5.394796609E-06  0.00000E+00  9.000E+00
     -14     1     6     6     0     0  1.453218703E+01  1.101528905E+02  2.418672940E+02  2.661665488E+02  6.607249480E-06  0.00000E+00  9.000E+00
       5     1     3     3   502     0 -2.945684510E+01 -7.629080473E+01  6.833966961E+00  8.220254384E+01  4.750000000E+00  0.00000E+00  9.000E+00
      -5     1     4     4     0   504 -2.106412584E+01 -2.922295525E+01  7.019247263E+01  7.903938401E+01  4.750000000E+00  0.00000E+00  9.000E+00
      21     1     1     2   512   502 -7.632591299E+00  6.821148959E+00  1.874708012E+01  2.135971760E+01  0.000000000E+00  0.00000E+00  9.000E+00
</event>
<event>
     13  10001  1.00000E+00  2.01541E+01 -1.00000E+00  1.70493E-01
      21    -1     0     0   503   504  0.000000000E+00  0.000000000E+00  1.084322388E+02  1.084322388E+02  0.000000000E+00  0.00000E+00  9.000E+00
      21    -1     0     0   511   503  0.000000000E+00  0.000000000E+00 -4.147676395E+02  4.147676395E+02  0.000000000E+00  0.00000E+00  9.000E+00
       6     2     1     2   502     0  5.170239305E+01  6.501431025E+01 -8.823630487E+01  2.104035254E+02  1.720000000E+02  0.00000E+00  9.000E+00
      -6     2     1     2     0   504 -7.137790215E+01 -6.938025192E+01 -1.733155641E+02  2.636867631E+02  1.720000000E+02  0.00000E+00  9.000E+00
      24     2     3     3     0     0  1.139210018E+01 -6.943086042E-01 -1.033076997E+02  1.317126635E+02  8.090415863E+01  0.00000E+00  9.000E+00
     -24     2     4     4     0     0 -4.903971184E+01 -1.046839655E+02 -8.510452490E+01  1.659672826E+02  8.329905607E+01  0.00000E+00  9.000E+00
     -11     1     5     5     0     0 -1.488394727E+00 -3.819733487E+01 -7.070654268E+01  8.037827373E+01  1.651812370E-06  0.00000E+00  9.000E+00
      12     1     5     5     0     0  1.288049491E+01  3.750302627E+01 -3.260115704E+01  5.133438973E+01  0.000000000E+00  0.00000E+00  9.000E+00
      13     1     6     6     0     0 -7.044959964E+01 -5.903481385E+01 -5.127170318E+01  1.052475315E+02  1.784161275E-06  0.00000E+00  9.000E+00
     -14     1     6     6     0     0  2.140988780E+01 -4.564915169E+01 -3.383282172E+01  6.071975108E+01  9.536743164E-07  0.00000E+00  9.000E+00
       5     1     3     3   502     0  4.031029287E+01  6.570861885E+01  1.507139485E+01  7.869086190E+01  4.750000000E+00  0.00000E+00  9.000E+00
      -5     1     4     4     0   504 -2.233819031E+01  3.530371362E+01 -8.821103917E+01  9.771948052E+01  4.750000000E+00  0.00000E+00  9.000E+00
      21     1     1     2   511   502  1.967550909E+01  4.365941668E+00 -4.478353173E+01  4.910958989E+01  4.768371582E-07  0.00000E+00  9.000E+00
</event>
<event>
     13  10001  1.00000E+00  2.03645E+02 -1.00000E+00  1.13282E-01
      21    -1     0     0   502   503  0.000000000E+00  0.000000000E+00  1.900690444E+02  1.900690444E+02  0.000000000E+00  0.00000E+00  9.000E+00
      21    -1     0     0   512   504  0.000000000E+00  0.000000000E+00 -6.207912410E+02  6.207912410E+02  0.000000000E+00  0.00000E+00  9.000E+00
       6     2     1     2   502     0 -6.403305952E+01 -1.650325432E+02 -1.199299628E+02  2.744142288E+02  1.720000000E+02  0.00000E+00  9.000E+00
      -6     2     1     2     0   504  3.681820877E+00 -2.946463735E+01 -1.213405819E+01  1.749655853E+02  1.720000000E+02  0.00000E+00  9.000E+00
      24     2     3     3     0     0 -8.166390362E+01 -1.180284843E+02 -1.453285329E+02  2.179529317E+02  7.604854814E+01  0.00000E+00  9.000E+00
     -24     2     4     4     0     0  5.959155296E+01 -1.536021113E+01  2.400981496E+01  1.067470024E+02  8.385321722E+01  0.00000E+00  9.000E+00
     -11     1     5     5     0     0  1.170993971E+00 -4.956222390E+01 -2.162360110E+01  5.408664706E+01  3.371747881E-07  0.00000E+00  9.000E+00
      12     1     5     5     0     0 -8.283489759E+01 -6.846626042E+01 -1.237049318E+02  1.638662846E+02  1.348699152E-06  0.00000E+00  9.000E+00
      13     1     6     6     0     0 -1.527947266E+01 -1.115433680E+01 -1.316640186E+01  2.304854989E+01  3.769728732E-07  0.00000E+00  9.000E+00
     -14     1     6     6     0     0  7.487102562E+01 -4.205874329E+00  3.717621682E+01  8.369845251E+01  1.651812370E-06  0.00000E+00  9.000E+00
       5     1     3     3   502     0  1.763084410E+01 -4.700405885E+01  2.539857015E+01  5.646129717E+01  4.750000000E+00  0.00000E+00  9.000E+00
      -5     1     4     4     0   504 -5.590973209E+01 -1.410442622E+01 -3.614387315E+01  6.821858286E+01  4.750000000E+00  0.00000E+00  9.000E+00
      21     1     1     2   512   503  6.035123864E+01  1.944971805E+02 -2.986581756E+02  3.614804712E+02  6.607249480E-06  0.00000E+00  9.000E+00
</event>
<event>
     13  10001  1.00000E+00  3.28205E+01 -1.00000E+00  1.53951E-01
      21    -1     0     0   503   511  0.000000000E+00  0.000000000E+00  9.218477009E+01  9.218477009E+01  0.000000000E+00  0.00000E+00  9.000E+00
      21    -1     0     0   502   503  0.000000000E+00  0.000000000E+00 -6.542771905E+02  6.542771905E+02  0.000000000E+00  0.00000E+00  9.000E+00
       6     2     1     2   502     0 -2.861616088E+01  1.236533003E+02 -2.225135609E+02  3.085535742E+02  1.720000000E+02  0.00000E+00  9.000E+00
      -6     2     1     2     0   504  4.143162521E+01 -1.538683126E+02 -3.278286068E+02  4.030479284E+02  1.720000000E+02  0.00000E+00  9.000E+00
      24     2     3     3     0     0 -3.822730224E+01 -3.075660120E+01 -6.558485372E+01  8.813584947E+01  3.254627123E+01  0.00000E+00  9.000E+00
     -24     2     4     4     0     0  6.298521296E+01 -1.520161793E+02 -1.900570971E+02  2.635074722E+02  7.898374463E+01  0.00000E+00  9.000E+00
     -11     1     5     5     0     0 -3.741387697E+01 -1.124555122E+01 -4.768725171E+01  6.164685384E+01  6.743495762E-07  0.00000E+00  9.000E+00
      12     1     5     5     0     0 -8.134252658E-01 -1.951104998E+01 -1.789760200E+01  2.648899563E+01  2.384185791E-07  0.00000E+00  9.000E+00
      13     1     6     6     0     0  1.634370178E+01 -2.290319851E+01  1.106640504E+00  2.815844000E+01  3.318646170E-07  0.00000E+00  9.000E+00
     -14     1     6     6     0     0  4.664151117E+01 -1.291129808E+02 -1.911637376E+02  2.353490322E+02  3.814697266E-06  0.00000E+00  9.000E+00
       5     1     3     3   502     0  9.611141356E+00  1.544099015E+02 -1.569287072E+02  2.204177247E+02  4.750000000E+00  0.00000E+00  9.000E+00
      -5     1     4     4     0   504 -2.155358775E+01 -1.852133234E+00 -1.377715097E+02  1.395404562E+02  4.750000000E+00  0.00000E+00  9.000E+00
      21     1     1     2   504   511 -1.281546433E+01  3.021501229E+01 -1.175025269E+01  3.486045800E+01  7.152557373E-07  0.00000E+00  9.000E+00
</event>
<event>
     13  10001  1.00000E+00  6.06844E+01 -1.00000E+00  1.37272E-01
      21    -1     0     0   512   504  0.000000000E+00  0.000000000E+00  6.970471437E+01  6.970471437E+01  0.000000000E+00  0.00000E+00  9.000E+00
      21    -1     0     0   502   503  0.000000000E+00  0.000000000E+00 -1.163761291E+03  1.163761291E+03  0.000000000E+00  0.00000E+00  9.000E+00
       6     2     1     2   502     0 -3.325170810E+01  1.694871346E+02 -6.345345360E+02  6.797423352E+02  1.720000000E+02  0.00000E+00  9.000E+00
      -6     2     1     2     0   504 -5.840557709E-01 -1.191111551E+02 -4.443970073E+02  4.911827649E+02  1.720000000E+02  0.00000E+00  9.000E+00
      24     2     3     3     0     0  3.395611609E+01  1.034134136E+02 -2.648706818E+02  2.982235862E+02  8.326750477E+01  0.00000E+00  9.000E+00
     -24     2     4     4     0     0 -4.245836661E+00 -1.168752454E+02 -1.898514051E+02  2.365566978E+02  7.897889034E+01  0.00000E+00  9.000E+00
     -11     1     5     5     0     0 -2.434415982E+01  4.772264573E+01 -7.720509592E+01  9.397188872E+01  2.697398305E-06  0.00000E+00  9.000E+00
      12     1     5     5     0     0  5.830027592E+01  5.569076790E+01 -1.876655859E+02  2.042516975E+02  2.697398305E-06  0.00000E+00  9.000E+00
      13     1     6     6     0     0 -4.261360053E+00 -2.543807282E+00  7.196571207E+00  8.741898085E+00  1.095818061E-06  0.00000E+00  9.000E+00
     -14     1     6     6     0     0  1.552339203E-02 -1.143314381E+02 -1.970479763E+02  2.278147997E+02  2.697398305E-06  0.00000E+00  9.000E+00
       5     1     3     3   502     0 -6.720782419E+01  6.607372093E+01 -3.696638542E+02  3.815187489E+02  4.750000000E+00  0.00000E+00  9.000E+00
      -5     1     4     4     0   504  3.661780890E+00 -2.235909623E+00 -2.545456022E+02  2.546260671E+02  4.750000000E+00  0.00000E+00  9.000E+00
      21     1     1     2   512   503  3.383576387E+01 -5.037597950E+01 -1.512503354E+01  6.254090555E+01  1.294944345E-06  0.00000E+00  9.000E+00
</event>
<event>
     13  10001  1.00000E+00  6.91872E+00 -1.00000E+00  2.23960E-01
      21    -1     0     0   502   503  0.000000000E+00  0.000000000E+00  2.188293923E+03  2.188293923E+03  0.000000000E+00  0.00000E+00  9.000E+00
      21    -1     0     0   511   504  0.000000000E+00  0.000000000E+00 -5.934556662E+01  5.934556662E+01  0.000000000E+00  0.00000E+00  9.000E+00
       6     2     1     2   502     0  9.077597456E-01  1.170161581E+02  1.947503686E+03  1.958583215E+03  1.720000000E+02  0.00000E+00  9.000E+00
      -6     2     1     2     0   504 -5.748001931E+00 -1.219599167E+02  1.856216273E+02  2.809744638E+02  1.720000000E+02  0.00000E+00  9.000E+00
      24     2     3     3     0     0  1.026276309E+01  1.200999133E+02  9.501363122E+02  9.611558916E+02  8.082278666E+01  0.00000E+00  9.000E+00
     -24     2     4     4     0     0  5.811351745E+01 -3.460173336E+01  8.339159417E+01  1.320339119E+02  7.683967099E+01  0.00000E+00  9.000E+00
     -11     1     5     5     0     0 -8.073972204E+00 -1.008201651E+01  6.097163514E+01  6.232476535E+01  3.438521648E-06  0.00000E+00  9.000E+00
      12     1     5     5     0     0  1.833673529E+01  1.301819298E+02  8.891646770E+02  8.988311263E+02  0.000000000E+00  0.00000E+00  9.000E+00
      13     1     6     6     0     0 -1.731481040E+01  3.735767153E+00  1.586665879E+01  2.378044315E+01  9.233911863E-07  0.00000E+00  9.000E+00
     -14     1     6     6     0     0  7.542832785E+01 -3.833750052E+01  6.752493538E+01  1.082534687E+02  3.814697266E-06  0.00000E+00  9.000E+00
       5     1     3     3   502     0 -9.355003341E+00 -3.083755203E+00  9.973673735E+02  9.974273236E+02  4.750000000E+00  0.00000E+00  9.000E+00
      -5     1     4     4     0   504 -6.386151938E+01 -8.735818333E+01  1.022300331E+02  1.489405520E+02  4.750000000E+00  0.00000E+00  9.000E+00
      21     1     1     2   511   503  4.840242185E+00  4.943758641E+00 -4.176956650E+00  8.081810488E+00  1.576990671E-07  0.00000E+00  9.000E+00
</event>
<event>
     13  10001  1.00000E+00  1.89148E+01 -1.00000E+00  1.72921E-01
      21    -1     0     0   513   512  0.000000000E+00  0.000000000E+00  1.616384136E+02  1.616384136E+02  0.000000000E+00  0.00000E+00  9.000E+00
       2    -1     0     0   502     0  0.000000000E+00  0.000000000E+00 -4.747719273E+02  4.747719273E+02  0.000000000E+00  0.00000E+00  9.000E+00
       6     2     1     2   502     0  1.774635588E+02 -8.053715179E+01 -1.795379173E+02  3.159072827E+02  1.720000000E+02  0.00000E+00  9.000E+00
      -6     2     1     2     0   512 -1.947713923E+02  7.290780188E+01 -1.345561529E+02  3.015639254E+02  1.720000000E+02  0.00000E+00  9.000E+00
      24     2     3     3     0     0  1.509002997E+02 -2.532381375E+01 -1.857132624E+02  2.541430793E+02  8.177464715E+01  0.00000E+00  9.000E+00
     -24     2     4     4     0     0 -2.335668287E+01  9.198172657E+00 -4.837461410E+01  9.934686483E+01  8.306356149E+01  0.00000E+00  9.000E+00
     -11     1     5     5     0     0  1.594647673E+00 -3.648918522E+00  7.805602377E+00  8.762701413E+00  3.769728732E-07  0.00000E+00  9.000E+00
      12     1     5     5     0     0  1.493056520E+02 -2.167489523E+01 -1.935188648E+02  2.453803779E+02  5.394796609E-06  0.00000E+00  9.000E+00
      13     1     6     6     0     0 -3.439921778E+01  4.056626251E+01 -3.394180440E+01  6.309495958E+01  9.536743164E-07  0.00000E+00  9.000E+00
     -14     1     6     6     0     0  1.104253492E+01 -3.136808985E+01 -1.443280970E+01  3.625190525E+01  7.348554138E-07  0.00000E+00  9.000E+00
       5     1     3     3   502     0  2.656325915E+01 -5.521333804E+01  6.175345195E+00  6.176420341E+01  4.750000000E+00  0.00000E+00  9.000E+00
      -5     1     4     4     0   512 -1.714147094E+02  6.370962922E+01 -8.618153881E+01  2.022170606E+02  4.750000000E+00  0.00000E+00  9.000E+00
       2     1     1     2   513     0  1.730783346E+01  7.629349913E+00  9.605564809E-01  1.893913271E+01  2.568019620E-07  0.00000E+00  9.000E+00
</event>
<event>
     13  10001  1.00000E+00  2.92855E+01 -1.00000E+00  1.57514E-01
      21    -1     0     0   502   503  0.000000000E+00  0.000000000E+00  1.469246329E+02  1.469246329E+02  0.000000000E+00  0.00000E+00  9.000E+00
      21    -1     0     0   511   504  0.000000000E+00  0.000000000E+00 -1.368684706E+03  1.368684706E+03  0.000000000E+00  0.00000E+00  9.000E+00
       6     2     1     2   502     0  1.191594441E+02 -1.031350973E+02 -1.713277317E+02  2.894356804E+02  1.720000000E+02  0.00000E+00  9.000E+00
      -6     2     1     2     0   504 -1.146069493E+02  1.320646289E+02 -8.394440040E+01  2.592421289E+02  1.720000000E+02  0.00000E+00  9.000E+00
      24     2     3     3     0     0  7.131631425E+01 -1.299448304E+02 -1.572257438E+02  2.326100222E+02  8.611511060E+01  0.00000E+00  9.000E+00
     -24     2     4     4     0     0 -1.094885336E+02  1.179646908E+02 -1.206041965E+02  2.193484002E+02  8.754964982E+01  0.00000E+00  9.000E+00
     -11     1     5     5     0     0 -1.262467511E+01 -1.701205014E+01 -5.425947398E+01  5.824845738E+01  6.743495762E-07  0.00000E+00  9.000E+00
      12     1     5     5     0     0  8.394098936E+01 -1.129327803E+02 -1.029662698E+02  1.743615648E+02  3.303624740E-06  0.00000E+00  9.000E+00
      13     1     6     6     0     0 -1.229853544E+02  1.107887090E+02 -1.192350416E+02  2.040013004E+02  2.336015456E-06  0.00000E+00  9.000E+00
     -14     1     6     6     0     0  1.349682079E+01  7.175981788E+00 -1.369154954E+00  1.534709977E+01  7.124562912E-07  0.00000E+00  9.000E+00
       5     1     3     3   502     0  4.784312986E+01  2.680973312E+01 -1.410198789E+01  5.682565817E+01  4.750000000E+00  0.00000E+00  9.000E+00
      -5     1     4     4     0   504 -5.118415700E+00  1.409993806E+01  3.665979615E+01  3.989372866E+01  4.750000000E+00  0.00000E+00  9.000E+00
      21     1     1     2   511   503 -4.552494823E+00 -2.892953158E+01 -9.664879406E+02  9.669315293E+02  1.868812365E-05  0.00000E+00  9.000E+00
</event>
<event>
     13  10001  1.00000E+00  6.84330E+00 -1.00000E+00  2.24691E-01
      -2    -1     0     0     0   513  0.000000000E+00  0.000000000E+00  5.352664681E+01  5.352664681E+01  0.000000000E+00  0.00000E+00  9.000E+00
       2    -1     0     0   502     0  0.000000000E+00  0.000000000E+00 -9.582096268E+02  9.582096268E+02  0.000000000E+00  0.00000E+00  9.000E+00
       6     2     1     2   502     0  1.266986746E+02  1.787907176E+01 -3.446465826E+02  4.058786546E+02  1.720000000E+02  0.00000E+00  9.000E+00
      -6     2     1     2     0   512 -1.326268312E+02 -2.129781078E+01 -5.572648370E+02  5.984743701E+02  1.720000000E+02  0.00000E+00  9.000E+00
      24     2     3     3     0     0  6.554953567E+01  3.313122289E+01 -3.203185866E+02  3.381567291E+02  7.969665568E+01  0.00000E+00  9.000E+00
     -24     2     4     4     0     0 -9.917059598E+01  5.205456753E+01 -3.511673840E+02  3.771180652E+02  7.971836936E+01  0.00000E+00  9.000E+00
     -11     1     5     5     0     0 -3.660159142E+00 -1.856455217E+01 -3.200883855E+01  3.718339828E+01  2.236564522E-06  0.00000E+00  9.000E+00
      12     1     5     5     0     0  6.920969481E+01  5.169577506E+01 -2.883097481E+02  3.009733308E+02  7.629394531E-06  0.00000E+00  9.000E+00
      13     1     6     6     0     0 -3.675558868E+01  1.272035538E+01 -2.435787135E+02  2.466644895E+02  3.814697266E-06  0.00000E+00  9.000E+00
     -14     1     6     6     0     0 -6.241500730E+01  3.933421215E+01 -1.075886706E+02  1.304535757E+02  2.336015456E-06  0.00000E+00  9.000E+00
       5     1     3     3   502     0  6.114913895E+01 -1.525215113E+01 -2.432799599E+01  6.772192553E+01  4.750000000E+00  0.00000E+00  9.000E+00
      -5     1     4     4     0   512 -3.345623526E+01 -7.335237831E+01 -2.060974530E+02  2.213563049E+02  4.750000000E+00  0.00000E+00  9.000E+00
      21     1     1     2   512   513  5.928156619E+00  3.418739021E+00 -2.771560353E+00  7.383248891E+00  1.299053116E-07  0.00000E+00  9.000E+00
</event>
<event>
     13  10001  1.00000E+00  1.35920E+01 -1.00000E+00  1.86815E-01
       2    -1     0     0   502     0  0.000000000E+00  0.000000000E+00  4.595731404E+02  4.595731404E+02  0.000000000E+00  0.00000E+00  9.000E+00
      -2    -1     0     0     0   511  0.000000000E+00  0.000000000E+00 -1.278978025E+02  1.278978025E+02  0.000000000E+00  0.00000E+00  9.000E+00
       6     2     1     2   502     0  1.249245039E+01  5.628592512E+00  3.325977813E+02  3.746905743E+02  1.720000000E+02  0.00000E+00  9.000E+00
      -6     2     1     2     0   512 -1.934007276E+00  2.930664395E+00  3.394909951E+01  1.753535587E+02  1.720000000E+02  0.00000E+00  9.000E+00
      24     2     3     3     0     0 -1.186624990E+01 -3.048313138E+01  2.699683662E+02  2.982549215E+02  1.224869393E+02  0.00000E+00  9.000E+00
     -24     2     4     4     0     0 -1.194964657E+01 -3.810241563E+01 -3.410253156E+01  9.511881757E+01  7.930963793E+01  0.00000E+00  9.000E+00
     -11     1     5     5     0     0  5.414324608E+01 -8.073051862E-01  1.062281396E+02  1.192332188E+02  1.348699152E-06  0.00000E+00  9.000E+00
      12     1     5     5     0     0 -6.600949599E+01 -2.967582620E+01  1.637402266E+02  1.790217027E+02  0.000000000E+00  0.00000E+00  9.000E+00
      13     1     6     6     0     0  2.679103570E+01  7.582969963E+00 -1.777512692E+01  3.303356118E+01  1.011524364E-06  0.00000E+00  9.000E+00
     -14     1     6     6     0     0 -3.874068227E+01 -4.568538559E+01 -1.632740464E+01  6.208525639E+01  1.668930054E-06  0.00000E+00  9.000E+00
       5     1     3     3   502     0  2.435870029E+01  3.611172389E+01  6.262941509E+01  7.643565279E+01  4.750000000E+00  0.00000E+00  9.000E+00
      -5     1     4     4     0   512  1.001563929E+01  4.103308002E+01  6.805163107E+01  8.023474109E+01  4.750000000E+00  0.00000E+00  9.000E+00
      21     1     1     2   512   511 -1.055844311E+01 -8.559256907E+00 -3.487154292E+01  3.742680998E+01  0.000000000E+00  0.00000E+00  9.000E+00
</event>
<event>
     13  10001  1.00000E+00  4.96937E+01 -1.00000E+00  1.42272E-01
      21    -1     0     0   513   503  0.000000000E+00  0.000000000E+00  1.030671847E+03  1.030671847E+03  0.000000000E+00  0.00000E+00  9.000E+00
      21    -1     0     0   503   504  0.000000000E+00  0.000000000E+00 -1.511344077E+02  1.511344077E+02  0.000000000E+00  0.00000E+00  9.000E+00
       6     2     1     2   502     0 -3.683738260E+01 -3.114150763E+01  5.086838077E+02  5.391382035E+02  1.720000000E+02  0.00000E+00  9.000E+00
      -6     2     1     2     0   504  3.648433892E+01  8.083397883E+01 -6.488409482E+01  2.041058179E+02  1.720000000E+02  0.00000E+00  9.000E+00
      24     2     3     3     0     0  2.887473967E+01 -3.887285540E+01  4.083248087E+02  4.188371315E+02  7.969029938E+01  0.00000E+00  9.000E+00
     -24     2     4     4     0     0  1.713936395E+01 -1.240920242E+01 -1.002806178E+00  8.933691768E+01  8.678901509E+01  0.00000E+00  9.000E+00
     -11     1     5     5     0     0 -8.794316859E-01 -4.546151884E+01  3.508366263E+02  3.537709166E+02  3.814697266E-06  0.00000E+00  9.000E+00
      12     1     5     5     0     0  2.975417136E+01  6.588663437E+00  5.748818246E+01  6.506621490E+01  1.651812370E-06  0.00000E+00  9.000E+00
      13     1     6     6     0     0  1.723387504E+01  3.611999581E+01 -6.321899241E+00  4.051699589E+01  1.233110479E-06  0.00000E+00  9.000E+00
     -14     1     6     6     0     0 -9.451108957E-02 -4.852919823E+01  5.319093063E+00  4.881992179E+01  1.662531576E-06  0.00000E+00  9.000E+00
       5     1     3     3   502     0 -6.571212227E+01  7.731347771E+00  1.003589990E+02  1.203010720E+02  4.750000000E+00  0.00000E+00  9.000E+00
      -5     1     4     4     0   504  1.934497496E+01  9.324318125E+01 -6.388128864E+01  1.147689002E+02  4.750000000E+00  0.00000E+00  9.000E+00
      21     1     1     2   513   502  3.530436821E-01 -4.969247120E+01  4.357377264E+02  4.385622333E+02  0.000000000E+00  0.00000E+00  9.000E+00
</event>
<event>
     13  10001  1.00000E+00  3.89568E+01 -1.00000E+00  1.48895E-01
      21    -1     0     0   511   512  0.000000000E+00  0.000000000E+00  8.513426007E+01  8.513426007E+01  0.000000000E+00  0.00000E+00  9.000E+00
       2    -1     0     0   502     0  0.000000000E+00  0.000000000E+00 -1.445810040E+03  1.445810040E+03  0.000000000E+00  0.00000E+00  9.000E+00
       6     2     1     2   502     0 -1.544734152E+01  8.073499507E+01 -1.192990623E+02  2.248844727E+02  1.720000000E+02  0.00000E+00  9.000E+00
      -6     2     1     2     0   512  9.156313056E+00 -1.191804552E+02 -3.115264582E+02  3.753938640E+02  1.720000000E+02  0.00000E+00  9.000E+00
      24     2     3     3     0     0 -3.145268559E+01  7.248683559E+01 -1.510533743E+02  1.880727625E+02  7.943946967E+01  0.00000E+00  9.000E+00
     -24     2     4     4     0     0  9.800546589E+00  5.926229994E+00 -8.957629723E+01  1.205673855E+02  7.988373110E+01  0.00000E+00  9.000E+00
     -11     1     5     5     0     0 -5.555856455E+01  6.750877131E+01 -1.179955122E+02  1.468575132E+02  1.907348633E-06  0.00000E+00  9.000E+00
      12     1     5     5     0     0  2.410587895E+01  4.978064280E+00 -3.305786214E+01  4.121524928E+01  9.536743164E-07  0.00000E+00  9.000E+00
      13     1     6     6     0     0  1.482322355E+01 -8.340230428E+00 -1.004880542E+02  1.019173019E+02  0.000000000E+00  0.00000E+00  9.000E+00
     -14     1     6     6     0     0 -5.022676957E+00  1.426646042E+01  1.091175693E+01  1.865008354E+01  2.665600750E-07  0.00000E+00  9.000E+00
       5     1     3     3   502     0  1.600534407E+01  8.248159480E+00  3.175431202E+01  3.681171017E+01  4.750000000E+00  0.00000E+00  9.000E+00
      -5     1     4     4     0   512 -6.442335327E-01 -1.251066852E+02 -2.219501610E+02  2.548264786E+02  4.750000000E+00  0.00000E+00  9.000E+00
       2     1     1     2   511     0  6.291028465E+00  3.844546010E+01 -9.298502592E+02  9.306659631E+02  1.078959322E-05  0.00000E+00  9.000E+00
</event>
<event>
     13  10001  1.00000E+00  1.10050E+02 -1.00000E+00  1.24301E-01
      21    -1     0     0   502   503  0.000000000E+00  0.000000000E+00  9.940049447E+02  9.940049447E+02  0.000000000E+00  0.00000E+00  9.000E+00
      21    -1     0     0   512   504  0.000000000E+00  0.000000000E+00 -9.990576021E+01  9.990576021E+01  0.000000000E+00  0.00000E+00  9.000E+00
       6     2     1     2   502     0  1.712507069E+02 -6.719173600E+01  5.760140898E+02  6.286634756E+02  1.720000000E+02  0.00000E+00  9.000E+00
      -6     2     1     2     0   504 -1.461161143E+02 -3.994957602E+01  2.059550965E+02  3.081353425E+02  1.720000000E+02  0.00000E+00  9.000E+00
      24     2     3     3     0     0  1.402228974E+02 -6.587204119E+01  2.737063171E+02  3.247275968E+02  8.081631837E+01  0.00000E+00  9.000E+00
     -24     2     4     4     0     0 -6.657665698E+01  1.709219436E+01  3.449683103E+01  1.106491704E+02  7.955258136E+01  0.00000E+00  9.000E+00
     -11     1     5     5     0     0  1.339222297E+02 -4.832011650E+01  2.706742214E+02  3.058341567E+02  0.000000000E+00  0.00000E+00  9.000E+00
      12     1     5     5     0     0  6.300667683E+00 -1.755192469E+01  3.032095711E+00  1.889344008E+01  4.712160915E-07  0.00000E+00  9.000E+00
      13     1     6     6     0     0 -1.857101050E+00  9.638046978E+00  4.375930223E+01  4.484659748E+01  8.259061849E-07  0.00000E+00  9.000E+00
     -14     1     6     6     0     0 -6.471955593E+01  7.454147384E+00 -9.262471196E+00  6.580257294E+01  1.739802303E-06  0.00000E+00  9.000E+00
       5     1     3     3   502     0  3.102780946E+01 -1.319694813E+00  3.023077726E+02  3.039358788E+02  4.750000000E+00  0.00000E+00  9.000E+00
      -5     1     4     4     0   504 -7.953945735E+01 -5.704177038E+01  1.714582655E+02  1.974861720E+02  4.750000000E+00  0.00000E+00  9.000E+00
      21     1     1     2   512   503 -2.513459253E+01  1.071413120E+02  1.121299982E+02  1.571118868E+02  2.336015456E-06  0.00000E+00  9.000E+00
</event>
<event>
     13  10001  1.00000E+00  6.91987E+00 -1.00000E+00  2.23949E-01
      -2    -1     0     0     0   512  0.000000000E+00  0.000000000E+00  2.550260699E+02  2.550260699E+02  0.000000000E+00  0.00000E+00  9.000E+00
       2    -1     0     0   511     0  0.000000000E+00  0.000000000E+00 -9.198335284E+02  9.198335284E+02  0.000000000E+00  0.00000E+00  9.000E+00
       6     2     1     2   502     0  4.166398114E+02 -1.236307639E+02 -4.374817731E+02  6.401934082E+02  1.720000000E+02  0.00000E+00  9.000E+00
      -6     2     1     2     0   512 -4.191857933E+02  1.171962777E+02 -2.043670378E+02  5.106873632E+02  1.720000000E+02  0.00000E+00  9.000E+00
      24     2     3     3     0     0  1.445170577E+02  4.746408037E+00 -1.388202578E+02  2.162208213E+02  8.107201248E+01  0.00000E+00  9.000E+00
     -24     2     4     4     0     0 -2.005370277E+02 -2.290381614E+00 -6.926205757E+01  2.272085057E+02  8.127808522E+01  0.00000E+00  9.000E+00
     -11     1     5     5     0     0  3.621410142E+01 -3.445194502E+01 -5.073105238E+01  7.121823736E+01  9.536743164E-07  0.00000E+00  9.000E+00
      12     1     5     5     0     0  1.083029562E+02  3.919835306E+01 -8.808920547E+01  1.450025839E+02  3.162979880E-06  0.00000E+00  9.000E+00
      13     1     6     6     0     0 -1.741756330E+02 -2.880586104E+01 -6.973585710E+01  1.898157489E+02  6.180515955E-06  0.00000E+00  9.000E+00
     -14     1     6     6     0     0 -2.636139471E+01  2.651547942E+01  4.737995277E-01  3.739275687E+01  1.049990104E-06  0.00000E+00  9.000E+00
       5     1     3     3   502     0  2.721227537E+02 -1.283771719E+02 -2.986615152E+02  4.239725870E+02  4.750000000E+00  0.00000E+00  9.000E+00
      -5     1     4     4     0   512 -2.186487656E+02  1.194866593E+02 -1.351049803E+02  2.834788575E+02  4.750000000E+00  0.00000E+00  9.000E+00
      21     1     1     2   511   502  2.545981932E+00  6.434486191E+00 -2.295864758E+01  2.397882681E+01  3.371747881E-07  0.00000E+00  9.000E+00
</event>
<event>
     13  10001  1.00000E+00  5.08200E+00 -1.00000E+00  2.46666E-01
      21    -1     0     0   512   503  0.000000000E+00  0.000000000E+00  3.017418221E+02  3.017418221E+02  0.000000000E+00  0.00000E+00  9.000E+00
      21    -1     0     0   503   504  0.000000000E+00  0.000000000E+00 -1.685633291E+02  1.685633291E+02  0.000000000E+00  0.00000E+00  9.000E+00
       6     2     1     2   502     0  3.871424750E+01  3.701830008E+01  2.006445253E+02  2.696504645E+02  1.720000000E+02  0.00000E+00  9.000E+00
      -6     2     1     2     0   504 -3.392460306E+01 -3.871713483E+01 -7.238621990E+01  1.935811459E+02  1.720000000E+02  0.00000E+00  9.000E+00
      24     2     3     3     0     0 -2.614935464E+01 -2.769822442E+01  1.049370292E+02  1.370684042E+02  7.952978648E+01  0.00000E+00  9.000E+00
     -24     2     4     4     0     0 -2.161100231E+01 -1.611558524E+01 -1.148195276E+02  1.437253247E+02  8.213828287E+01  0.00000E+00  9.000E+00
     -11     1     5     5     0     0  9.815810942E-01 -2.851891911E+01 -1.461867600E-01  2.853618088E+01  4.942717639E-07  0.00000E+00  9.000E+00
      12     1     5     5     0     0 -2.713093574E+01  8.206946905E-01  1.050832160E+02  1.085322233E+02  2.336015456E-06  0.00000E+00  9.000E+00
      13     1     6     6     0     0 -2.634004246E+01 -4.378091430E+01 -9.925008692E+01  1.116295035E+02  1.348699152E-06  0.00000E+00  9.000E+00
     -14     1     6     6     0     0  4.729040143E+00  2.766532906E+01 -1.556944072E+01  3.209582118E+01  1.118282261E-06  0.00000E+00  9.000E+00
       5     1     3     3   502     0  6.486360214E+01  6.471652450E+01  9.570749608E+01  1.325820604E+02  4.750000000E+00  0.00000E+00  9.000E+00
      -5     1     4     4     0   504 -1.231360075E+01 -2.260154959E+01  4.243330774E+01  4.985582126E+01  4.750000000E+00  0.00000E+00  9.000E+00
      21     1     1     2   512   502 -4.789644437E+00  1.698834751E+00  4.920187583E+00  7.073540782E+00  5.960464478E-08  0.00000E+00  9.000E+00
</event>
<event>
     13  10001  1.00000E+00  1.46328E+01 -1.00000E+00  1.83515E-01
      21    -1     0     0   502   503  0.000000000E+00  0.000000000E+00  4.022820307E+02  4.022820307E+02  0.000000000E+00  0.00000E+00  9.000E+00
       3    -1     0     0   503     0  0.000000000E+00  0.000000000E+00 -1.238686049E+02  1.238686049E+02  0.000000000E+00  0.00000E+00  9.000E+00
       6     2     1     2   502     0 -8.446219681E+01 -8.022522381E+01  5.840040068E+01  2.157882203E+02  1.720000000E+02  0.00000E+00  9.000E+00
      -6     2     1     2     0   504  6.992431642E+01  7.856143508E+01  2.153769489E+02  2.950127781E+02  1.720000000E+02  0.00000E+00  9.000E+00
      24     2     3     3     0     0 -1.134491441E+02 -5.476107887E+01  8.220588973E+01  1.702039072E+02  7.963716269E+01  0.00000E+00  9.000E+00
     -24     2     4     4     0     0  3.384274089E+01 -2.299229448E+00  3.369432672E+01  9.284585480E+01  7.958911693E+01  0.00000E+00  9.000E+00
     -11     1     5     5     0     0 -4.254704628E+01 -5.111779727E+01  7.277036570E+01  9.858400716E+01  9.536743164E-07  0.00000E+00  9.000E+00
      12     1     5     5     0     0 -7.090209780E+01 -3.643281606E+00  9.435524029E+00  7.161990007E+01  2.431401974E-06  0.00000E+00  9.000E+00
      13     1     6     6     0     0 -1.818414286E+01 -1.019368175E+01 -1.120916793E+01  2.366895952E+01  2.920019320E-07  0.00000E+00  9.000E+00
     -14     1     6     6     0     0  5.202688375E+01  7.894452301E+00  4.490349465E+01  6.917689529E+01  1.651812370E-06  0.00000E+00  9.000E+00
       5     1     3     3   502     0  2.898694727E+01 -2.546414494E+01 -2.380548905E+01  4.558431307E+01  4.750000000E+00  0.00000E+00  9.000E+00
      -5     1     4     4     0   504  3.608157553E+01  8.086066453E+01  1.816826222E+02  2.021669233E+02  4.750000000E+00  0.00000E+00  9.000E+00
       3     1     1     2   504     0  1.453788038E+01  1.663788727E+00  4.636076116E+00  1.534963715E+01  5.960464478E-08  0.00000E+00  9.000E+00
</event>
<event>
     13  10001  1.00000E+00  1.13991E+01 -1.00000E+00  1.95203E-01
      21    -1     0     0   502   503  0.000000000E+00  0.000000000E+00  5.882657132E+02  5.882657132E+02  0.000000000E+00  0.00000E+00  9.000E+00
      21    -1     0     0   503   511  0.000000000E+00  0.000000000E+00 -2.664561216E+02  2.664561216E+02  0.000000000E+00  0.00000E+00  9.000E+00
       6     2     1     2   502     0  1.058699593E+02  1.092146100E+02  3.019449901E+02  3.793297462E+02  1.720000000E+02  0.00000E+00  9.000E+00
      -6     2     1     2     0   504 -9.789606066E+01 -1.173606231E+02  1.939534832E+02  3.009304042E+02  1.720000000E+02  0.00000E+00  9.000E+00
      24     2     3     3     0     0  1.335185333E+02  1.208856753E+02  2.769790781E+02  3.400039700E+02  8.027916701E+01  0.00000E+00  9.000E+00
     -24     2     4     4     0     0 -5.886624659E+01  5.727297123E+00  6.754480674E+01  1.201662527E+02  7.987233847E+01  0.00000E+00  9.000E+00
     -11     1     5     5     0     0  7.850191774E+01  6.789233158E+01  2.244885156E+02  2.473196584E+02  4.672030912E-06  0.00000E+00  9.000E+00
      12     1     5     5     0     0  5.501661559E+01  5.299334370E+01  5.249056255E+01  9.268431164E+01  9.536743164E-07  0.00000E+00  9.000E+00
      13     1     6     6     0     0 -5.520972638E+01  1.765109693E+01  8.241600759E+01  1.007574981E+02  2.132480600E-06  0.00000E+00  9.000E+00
     -14     1     6     6     0     0 -3.656520207E+00 -1.192379981E+01 -1.487120085E+01  1.940875464E+01  2.920019320E-07  0.00000E+00  9.000E+00
       5     1     3     3   502     0 -2.764857408E+01 -1.167106529E+01  2.496591194E+01  3.932577619E+01  4.750000000E+00  0.00000E+00  9.000E+00
      -5     1     4     4     0   504 -3.902981407E+01 -1.230879202E+02  1.264086764E+02  1.807641515E+02  4.750000000E+00  0.00000E+00  9.000E+00
      21     1     1     2   504   511 -7.973898595E+00  8.146013117E+00 -1.740888817E+02  1.744616844E+02  0.000000000E+00  0.00000E+00  9.000E+00
</event>
<event>
     13  10001  1.00000E+00  8.26625E+01 -1.00000E+00  1.30209E-01
      21    -1     0     0   502   503  0.000000000E+00  0.000000000E+00  1.363838873E+03  1.363838873E+03  0.000000000E+00  0.00000E+00  9.000E+00
       2    -1     0     0   503     0  0.000000000E+00  0.000000000E+00 -4.420212384E+02  4.420212384E+02  0.000000000E+00  0.00000E+00  9.000E+00
       6     2     1     2   502     0 -1.433261327E+02  6.919343228E+01  1.143447770E+03  1.167213311E+03  1.720000000E+02  0.00000E+00  9.000E+00
      -6     2     1     2     0   504  1.427741706E+02  1.346718994E+01  1.423783917E+02  2.653703741E+02  1.720000000E+02  0.00000E+00  9.000E+00
      24     2     3     3     0     0 -1.051098192E+02  1.139764920E+02  8.326905343E+02  8.508928550E+02  8.127982489E+01  0.00000E+00  9.000E+00
     -24     2     4     4     0     0  1.177171092E+02 -1.089457958E+01  2.792662247E+01  1.456075997E+02  8.028491246E+01  0.00000E+00  9.000E+00
     -11     1     5     5     0     0 -6.173769389E+01  9.563168642E+01  4.074064521E+02  4.230094320E+02  0.000000000E+00  0.00000E+00  9.000E+00
      12     1     5     5     0     0 -4.337212531E+01  1.834480554E+01  4.252840822E+02  4.278834230E+02  0.000000000E+00  0.00000E+00  9.000E+00
      13     1     6     6     0     0 -9.126280647E+00 -1.215077218E+01 -1.853979911E+00  1.530906609E+01  6.789437383E-07  0.00000E+00  9.000E+00
     -14     1     6     6     0     0  1.268433899E+02  1.256192592E+00  2.978060238E+01  1.302985336E+02  5.926991889E-06  0.00000E+00  9.000E+00
       5     1     3     3   502     0 -3.821631352E+01 -4.478305969E+01  3.107572355E+02  3.163204562E+02  4.750000000E+00  0.00000E+00  9.000E+00
      -5     1     4     4     0   504  2.505706136E+01  2.436176953E+01  1.144517693E+02  1.197627744E+02  4.750000000E+00  0.00000E+00  9.000E+00
       2     1     1     2   504     0  5.519621253E-01 -8.266062222E+01 -3.640085266E+02  3.732764265E+02  7.629394531E-06  0.00000E+00  9.000E+00
</event>
<event>
     13  10001  1.00000E+00  7.56866E+01 -1.00000E+00  1.32146E-01
      21    -1     0     0   503   504  0.000000000E+00  0.000000000E+00  2.782974089E+02  2.782974089E+02  0.000000000E+00  0.00000E+00  9.000E+00
      21    -1     0     0   502   511  0.000000000E+00  0.000000000E+00 -2.548559601E+02  2.548559601E+02  0.000000000E+00  0.00000E+00  9.000E+00
       6     2     1     2   502     0 -1.744309794E+01  1.087210973E+02  1.051763753E+02  2.297185421E+02  1.720000000E+02  0.00000E+00  9.000E+00
      -6     2     1     2     0   504  9.121016729E+01 -9.178350186E+01 -7.283015777E+01  2.272261818E+02  1.720000000E+02  0.00000E+00  9.000E+00
      24     2     3     3     0     0 -6.710083012E+01  4.961195749E+01  9.924851078E+01  1.521461059E+02  7.958833412E+01  0.00000E+00  9.000E+00
     -24     2     4     4     0     0  6.950540367E+01 -6.682273952E+01 -1.173944331E+02  1.715245342E+02  7.964253418E+01  0.00000E+00  9.000E+00
     -11     1     5     5     0     0 -3.685018214E+01 -1.446633123E+01  5.778923809E+01  7.004860243E+01  6.743495762E-07  0.00000E+00  9.000E+00
      12     1     5     5     0     0 -3.025064798E+01  6.407828873E+01  4.145927270E+01  8.209750351E+01  1.348699152E-06  0.00000E+00  9.000E+00
      13     1     6     6     0     0  1.841694375E+01 -6.280512533E+01 -3.428566620E+01  7.388622667E+01  4.768371582E-07  0.00000E+00  9.000E+00
     -14     1     6     6     0     0  5.108845991E+01 -4.017614186E+00 -8.310876687E+01  9.763830749E+01  9.536743164E-07  0.00000E+00  9.000E+00
       5     1     3     3   502     0  4.965773218E+01  5.910913985E+01  5.927864527E+00  7.757243619E+01  4.750000000E+00  0.00000E+00  9.000E+00
      -5     1     4     4     0   504  2.170476362E+01 -2.496076235E+01  4.456427529E+01  5.570164767E+01  4.750000000E+00  0.00000E+00  9.000E+00
      21     1     1     2   503   511 -7.376706935E+01 -1.693759548E+01 -8.904768764E+00  7.620864497E+01  1.143415337E-06  0.00000E+00  9.000E+00
</event>
<event>
     13  10001  1.00000E+00  1.02073E+01 -1.00000E+00  2.00882E-01
      21    -1     0     0   512   503  0.000000000E+00  0.000000000E+00  1.002130580E+02  1.002130580E+02  0.000000000E+00  0.00000E+00  9.000E+00
      21    -1     0     0   503   504  0.000000000E+00  0.000000000E+00 -7.762744187E+02  7.762744187E+02  0.000000000E+00  0.00000E+00  9.000E+00
       6     2     1     2   502     0  4.234386251E+01 -1.982328078E+01 -6.607044131E+02  6.843246938E+02  1.720000000E+02  0.00000E+00  9.000E+00
      -6     2     1     2     0   504 -4.248462370E+01  9.616956323E+00 -2.366561320E+01  1.790013697E+02  1.720000000E+02  0.00000E+00  9.000E+00
      24     2     3     3     0     0  6.806330580E+00  2.264197044E+01 -1.590782282E+02  1.796291366E+02  8.001099324E+01  0.00000E+00  9.000E+00
     -24     2     4     4     0     0 -2.001881020E+01  7.155197400E+01 -2.217715693E+01  1.129299145E+02  8.210299353E+01  0.00000E+00  9.000E+00
     -11     1     5     5     0     0 -1.619503013E+01 -1.885325589E+01 -1.040269066E+02  1.069547641E+02  1.348699152E-06  0.00000E+00  9.000E+00
      12     1     5     5     0     0  2.300136071E+01  4.149522633E+01 -5.505132163E+01  7.267437248E+01  1.168007728E-06  0.00000E+00  9.000E+00
      13     1     6     6     0     0 -1.332635025E+01  1.884913054E+00  2.509276613E+01  2.847439939E+01  1.390207266E-06  0.00000E+00  9.000E+00
     -14     1     6     6     0     0 -6.692459948E+00  6.966706095E+01 -4.726992307E+01  8.445551509E+01  1.907348633E-06  0.00000E+00  9.000E+00
       5     1     3     3   502     0  3.553753193E+01 -4.246525121E+01 -5.016261848E+02  5.046955573E+02  4.750000000E+00  0.00000E+00  9.000E+00
      -5     1     4     4     0   504 -2.246581350E+01 -6.193501768E+01 -1.488456266E+00  6.607145521E+01  4.750000000E+00  0.00000E+00  9.000E+00
      21     1     1     2   512   502  1.407611843E-01  1.020632445E+01  8.308665593E+00  1.316141317E+01  2.064765462E-07  0.00000E+00  9.000E+00
</event>
<event>
     13  10001  1.00000E+00  4.24567E+01 -1.00000E+00  1.46483E-01
      21    -1     0     0   503   504  0.000000000E+00  0.000000000E+00  3.489287530E+02  3.489287530E+02  0.000000000E+00  0.00000E+00  9.000E+00
      21    -1     0     0   502   511  0.000000000E+00  0.000000000E+00 -3.940258977E+02  3.940258977E+02  0.000000000E+00  0.00000E+00  9.000E+00
       6     2     1     2   502     0  5.488625361E+01  3.845332296E+01 -7.644381327E+01  1.997969356E+02  1.720000000E+02  0.00000E+00  9.000E+00
      -6     2     1     2     0   504 -2.995640130E+01 -4.086553830E+00  2.585599601E+02  3.120117608E+02  1.720000000E+02  0.00000E+00  9.000E+00
      24     2     3     3     0     0  1.000943427E+02  4.762057100E+01 -7.094543323E+01  1.530999931E+02  7.822887673E+01  0.00000E+00  9.000E+00
     -24     2     4     4     0     0 -1.238323743E+01  1.093999606E+01  3.959401612E+01  9.177720306E+01  8.113162642E+01  0.00000E+00  9.000E+00
     -11     1     5     5     0     0  8.715979453E+01  6.765540207E+01 -4.913211445E+01  1.207809914E+02  2.132480600E-06  0.00000E+00  9.000E+00
      12     1     5     5     0     0  1.293454819E+01 -2.003483107E+01 -2.181331878E+01  3.231900167E+01  5.840038640E-07  0.00000E+00  9.000E+00
      13     1     6     6     0     0  1.061912178E+01  4.090596718E+01  3.256329471E+01  5.335196398E+01  9.536743164E-07  0.00000E+00  9.000E+00
     -14     1     6     6     0     0 -2.300235921E+01 -2.996597112E+01  7.030721404E+00  3.842523907E+01  1.149612756E-06  0.00000E+00  9.000E+00
       5     1     3     3   502     0 -4.520808911E+01 -9.167248042E+00 -5.498380043E+00  4.669694252E+01  4.750000000E+00  0.00000E+00  9.000E+00
      -5     1     4     4     0   504 -1.757316387E+01 -1.502654989E+01  2.189659440E+02  2.202345578E+02  4.750000000E+00  0.00000E+00  9.000E+00
      21     1     1     2   503   511 -2.492985231E+01 -3.436676913E+01 -2.272132915E+02  2.311459543E+02  4.672030912E-06  0.00000E+00  9.000E+00
</event>
<event>
     13  10001  1.00000E+00  6.50565E+01 -1.00000E+00  1.35614E-01
      21    -1     0     0   512   504  0.000000000E+00  0.000000000E+00  3.251589367E+02  3.251589367E+02  0.000000000E+00  0.00000E+00  9.000E+00
      21    -1     0     0   502   503  0.000000000E+00  0.000000000E+00 -4.368399059E+02  4.368399059E+02  0.000000000E+00  0.00000E+00  9.000E+00
       6     2     1     2   502     0  4.425479828E+01  3.974604090E+00 -3.561453061E+02  3.979921654E+02  1.720000000E+02  0.00000E+00  9.000E+00
      -6     2     1     2     0   504 -9.727445675E+01 -4.167430145E+01  1.615392234E+02  2.586077881E+02  1.720000000E+02  0.00000E+00  9.000E+00
      24     2     3     3     0     0  4.579294264E+01  6.130179319E+01 -1.681437414E+02  2.013810687E+02  8.016928106E+01  0.00000E+00  9.000E+00
     -24     2     4     4     0     0 -1.222243584E+02 -6.952848882E+01  1.448764751E+02  2.173941613E+02  8.061032073E+01  0.00000E+00  9.000E+00
     -11     1     5     5     0     0  9.814626506E+00  3.083354748E+01 -6.502801389E+00  3.300486282E+01  5.264139692E-07  0.00000E+00  9.000E+00
      12     1     5     5     0     0  3.597831613E+01  3.046824571E+01 -1.616409400E+02  1.683762059E+02  3.303624740E-06  0.00000E+00  9.000E+00
      13     1     6     6     0     0 -9.472583825E+01 -7.986232798E+01  1.410989215E+02  1.877761474E+02  3.303624740E-06  0.00000E+00  9.000E+00
     -14     1     6     6     0     0 -2.749852013E+01  1.033383915E+01  3.777553569E+00  2.961801398E+01  1.131703707E-06  0.00000E+00  9.000E+00
       5     1     3     3   502     0 -1.538144354E+00 -5.732718910E+01 -1.880015647E+02  1.966110967E+02  4.750000000E+00  0.00000E+00  9.000E+00
      -5     1     4     4     0   504  2.494990163E+01  2.785418737E+01  1.666274834E+01  4.121362672E+01  4.750000000E+00  0.00000E+00  9.000E+00
      21     1     1     2   512   503  5.301965847E+01  3.769969736E+01  8.292511353E+01  1.053988891E+02  9.536743164E-07  0.00000E+00  9.000E+00
</event>
<event>
     13  10001  1.00000E+00  1.02930E+02 -1.00000E+00  1.25632E-01
      21    -1     0     0   502   503  0.000000000E+00  0.000000000E+00  3.103721930E+02  3.103721930E+02  0.000000000E+00  0.00000E+00  9.000E+00
      21    -1     0     0   503   511  0.000000000E+00  0.000000000E+00 -4.633935433E+02  4.633935433E+02  0.000000000E+00  0.00000E+00  9.000E+00
       6     2     1     2   502     0  6.143033852E+01  4.102587881E+01  1.351449774E+02  2.308787001E+02  1.720000000E+02  0.00000E+00  9.000E+00
      -6     2     1     2     0   504  3.135012550E+01  3.543232139E+00  5.603252795E+01  1.836274191E+02  1.720000000E+02  0.00000E+00  9.000E+00
      24     2     3     3     0     0 -7.083239286E+00 -2.081772369E+01  1.024752390E+02  1.328551528E+02  8.164414934E+01  0.00000E+00  9.000E+00
     -24     2     4     4     0     0  2.691157931E+01 -6.840130830E-01  1.008616061E+02  1.381325948E+02  9.045910218E+01  0.00000E+00  9.000E+00
     -11     1     5     5     0     0 -3.927267892E+01  8.183039037E+00  3.859344685E+01  5.566650319E+01  1.261592536E-06  0.00000E+00  9.000E+00
      12     1     5     5     0     0  3.218943963E+01 -2.900076273E+01  6.388179210E+01  7.718864959E+01  1.168007728E-06  0.00000E+00  9.000E+00
      13     1     6     6     0     0 -5.876014914E+00  2.844565661E-01 -1.584608004E+01  1.690286128E+01  8.259061849E-07  0.00000E+00  9.000E+00
     -14     1     6     6     0     0  3.278759423E+01 -9.684696491E-01  1.167076862E+02  1.212297335E+02  2.336015456E-06  0.00000E+00  9.000E+00
       5     1     3     3   502     0  6.851357780E+01  6.184360251E+01  3.266973850E+01  9.802354731E+01  4.750000000E+00  0.00000E+00  9.000E+00
      -5     1     4     4     0   504  4.438546187E+00  4.227245222E+00 -4.482907817E+01  4.549482437E+01  4.750000000E+00  0.00000E+00  9.000E+00
      21     1     1     2   504   511 -9.278046402E+01 -4.456911095E+01 -3.441988558E+02  3.592596171E+02  5.394796609E-06  0.00000E+00  9.000E+00
</event>
<event>
     13  10001  1.00000E+00  1.41526E+01 -1.00000E+00  1.84992E-01
      21    -1     0     0   502   503  0.000000000E+00  0.000000000E+00  6.885773927E+02  6.885773927E+02  0.000000000E+00  0.00000E+00  9.000E+00
      21    -1     0     0   503   512  0.000000000E+00  0.000000000E+00 -8.664323580E+01  8.664323580E+01  0.000000000E+00  0.00000E+00  9.000E+00
       6     2     1     2   502     0 -1.236628216E+02  5.628473850E+01  2.218617612E+02  3.118767486E+02  1.720000000E+02  0.00000E+00  9.000E+00
      -6     2     1     2     0   504  1.097044303E+02 -5.862112151E+01  3.913761550E+02  4.452311676E+02  1.720000000E+02  0.00000E+00  9.000E+00
      24     2     3     3     0     0 -1.521297053E+02  2.509590516E+01  1.555754939E+02  2.331396002E+02  7.985666668E+01  0.00000E+00  9.000E+00
     -24     2     4     4     0     0  9.649942359E+01 -5.965813876E+01  4.032833898E+02  4.267977104E+02  8.153257535E+01  0.00000E+00  9.000E+00
     -11     1     5     5     0     0 -5.811521737E+01  1.315576812E+01  1.149346901E+01  6.068403871E+01  2.323816858E-06  0.00000E+00  9.000E+00
      12     1     5     5     0     0 -9.401448794E+01  1.194013703E+01  1.440820249E+02  1.724555615E+02  2.697398305E-06  0.00000E+00  9.000E+00
      13     1     6     6     0     0  2.668619162E+01  8.705677773E+00  3.062888242E+01  4.154599965E+01  3.371747881E-07  0.00000E+00  9.000E+00
     -14     1     6     6     0     0  6.981323197E+01 -6.836381653E+01  3.726545074E+02  3.852517108E+02  7.629394531E-06  0.00000E+00  9.000E+00
       5     1     3     3   502     0  2.846688372E+01  3.118883335E+01  6.628626733E+01  7.873714835E+01  4.750000000E+00  0.00000E+00  9.000E+00
      -5     1     4     4     0   504  1.320500669E+01  1.037017248E+00 -1.190723476E+01  1.843345725E+01  4.750000000E+00  0.00000E+00  9.000E+00
      21     1     1     2   504   512  1.395839130E+01  2.336383012E+00 -1.130375929E+01  1.811271231E+01  0.000000000E+00  0.00000E+00  9.000E+00
</event>
<event>
     13  10001  1.00000E+00  3.42626E+01 -1.00000E+00  1.52650E-01
      21    -1     0     0   503   504  0.000000000E+00  0.000000000E+00  1.740269063E+02  1.740269063E+02  0.000000000E+00  0.00000E+00  9.000E+00
       1    -1     0     0   502     0  0.000000000E+00  0.000000000E+00 -2.627197853E+02  2.627197853E+02  0.000000000E+00  0.00000E+00  9.000E+00
       6     2     1     2   502     0  1.179995660E+01 -8.140644369E+00  1.950660828E+01  1.736951837E+02  1.720000000E+02  0.00000E+00  9.000E+00
      -6     2     1     2     0   504  1.570106418E+01  2.857642991E+01 -2.991941695E+01  1.776015407E+02  1.720000000E+02  0.00000E+00  9.000E+00
      24     2     3     3     0     0 -9.794689053E+00 -6.775389331E+01  2.995806974E+01  1.092602264E+02  7.971063382E+01  0.00000E+00  9.000E+00
     -24     2     4     4     0     0  6.450762186E+01  5.456453543E+01 -3.720624426E+00  1.162305302E+02  7.973187132E+01  0.00000E+00  9.000E+00
     -11     1     5     5     0     0  8.690070859E+00  8.529792695E+00 -1.459356879E+01  1.900649744E+01  9.233911863E-07  0.00000E+00  9.000E+00
      12     1     5     5     0     0 -1.848475991E+01 -7.628368600E+01  4.455163853E+01  9.025372898E+01  1.066240300E-06  0.00000E+00  9.000E+00
      13     1     6     6     0     0  2.198563751E+01  6.808544246E+01 -2.756104360E+00  7.160022237E+01  1.899415895E-06  0.00000E+00  9.000E+00
     -14     1     6     6     0     0  4.252198435E+01 -1.352090703E+01 -9.645200664E-01  4.463030785E+01  4.017790783E-07  0.00000E+00  9.000E+00
       5     1     3     3   502     0  2.159464565E+01  5.961324894E+01 -1.045146145E+01  6.443495725E+01  4.750000000E+00  0.00000E+00  9.000E+00
      -5     1     4     4     0   504 -4.880655769E+01 -2.598810553E+01 -2.619879253E+01  6.137101052E+01  4.750000000E+00  0.00000E+00  9.000E+00
       1     1     1     2   503     0 -2.750102077E+01 -2.043578554E+01 -7.828007039E+01  8.544996720E+01  9.536743164E-07  0.00000E+00  9.000E+00
</event>
<event>
     13  10001  1.00000E+00  8.89870E+00 -1.00000E+00  2.08436E-01
      -1    -1     0     0     0   512  0.000000000E+00  0.000000000E+00  3.791101377E+02  3.791101377E+02  0.000000000E+00  0.00000E+00  9.000E+00
       1    -1     0     0   511     0  0.000000000E+00  0.000000000E+00 -3.531564728E+02  3.531564728E+02  0.000000000E+00  0.00000E+00  9.000E+00
       6     2     1     2   502     0  1.423115100E+02 -2.626182540E+01  2.889168932E+02  3.660590397E+02  1.720000000E+02  0.00000E+00  9.000E+00
      -6     2     1     2     0   512 -1.480380956E+02  1.945057290E+01 -2.015045879E+02  3.041080424E+02  1.720000000E+02  0.00000E+00  9.000E+00
      24     2     3     3     0     0  1.855964976E+01 -2.109478841E+01  6.366586664E+01  1.089563196E+02  8.383726091E+01  0.00000E+00  9.000E+00
     -24     2     4     4     0     0 -1.190483579E+01 -2.771678144E+01 -7.421584884E+01  1.118009720E+02  7.798410120E+01  0.00000E+00  9.000E+00
     -11     1     5     5     0     0  3.201923748E+01 -7.190040488E+00 -8.779558723E+00  3.397070654E+01  1.526623782E-06  0.00000E+00  9.000E+00
      12     1     5     5     0     0 -1.345958773E+01 -1.390474792E+01  7.244542537E+01  7.498561311E+01  9.536743164E-07  0.00000E+00  9.000E+00
      13     1     6     6     0     0  7.811794850E+00  4.362954753E+00  1.358475120E+01  1.626668307E+01  2.384185791E-07  0.00000E+00  9.000E+00
     -14     1     6     6     0     0 -1.971663064E+01 -3.207973619E+01 -8.780060005E+01  9.553428896E+01  1.907348633E-06  0.00000E+00  9.000E+00
       5     1     3     3   502     0  1.237518602E+02 -5.167036992E+00  2.252510265E+02  2.571027200E+02  4.750000000E+00  0.00000E+00  9.000E+00
      -5     1     4     4     0   512 -1.361332598E+02  4.716735433E+01 -1.272887391E+02  1.923070704E+02  4.750000000E+00  0.00000E+00  9.000E+00
      21     1     1     2   511   502  5.726585572E+00  6.811252506E+00 -6.145864043E+01  6.209952839E+01  9.536743164E-07  0.00000E+00  9.000E+00
</event>
<event>
     13  10001  1.00000E+00  6.89721E+01 -1.00000E+00  1.34253E-01
      21    -1     0     0   503   504  0.000000000E+00  0.000000000E+00  2.940061023E+02  2.940061023E+02  0.000000000E+00  0.00000E+00  9.000E+00
       2    -1     0     0   502     0  0.000000000E+00  0.000000000E+00 -9.390790731E+02  9.390790731E+02  0.000000000E+00  0.00000E+00  9.000E+00
       6     2     1     2   502     0 -3.024927268E+01  1.443018797E+02  1.282099398E+02  2.603072025E+02  1.720000000E+02  0.00000E+00  9.000E+00
      -6     2     1     2     0   504  4.961362208E+01 -7.810392449E+01  1.117099267E+00  1.953125250E+02  1.720000000E+02  0.00000E+00  9.000E+00
      24     2     3     3     0     0 -5.711730642E+01  1.643905774E+02  1.178749080E+02  2.248837302E+02  7.994716708E+01  0.00000E+00  9.000E+00
     -24     2     4     4     0     0  2.688583845E+01 -5.912902771E+01 -6.611446865E+01  1.216970030E+02  7.886664281E+01  0.00000E+00  9.000E+00
     -11     1     5     5     0     0  1.397730315E+01  2.428253046E+01  4.179925125E+01  5.032080776E+01  1.430511475E-06  0.00000E+00  9.000E+00
      12     1     5     5     0     0 -7.109460957E+01  1.401080469E+02  7.607565677E+01  1.745629224E+02  3.568322551E-06  0.00000E+00  9.000E+00
      13     1     6     6     0     0 -7.311764653E+00 -6.157886042E+01 -6.108506966E+01  8.704483723E+01  2.236564522E-06  0.00000E+00  9.000E+00
     -14     1     6     6     0     0  3.419760311E+01  2.449832707E+00 -5.029398986E+00  3.465216577E+01  7.974557972E-07  0.00000E+00  9.000E+00
       5     1     3     3   502     0  2.686803374E+01 -2.008869763E+01  1.033503179E+01  3.542347233E+01  4.750000000E+00  0.00000E+00  9.000E+00
      -5     1     4     4     0   504  2.272778363E+01 -1.897489678E+01  6.723156792E+01  7.361552201E+01  4.750000000E+00  0.00000E+00  9.000E+00
       2     1     1     2   503     0 -1.936434939E+01 -6.619795526E+01 -7.744000099E+02  7.774654479E+02  1.078959322E-05  0.00000E+00  9.000E+00
</event>
<event>
     13  10001  1.00000E+00  2.90190E+01 -1.00000E+00  1.57807E-01
      21    -1     0     0   503   511  0.000000000E+00  0.000000000E+00  1.461795390E+02  1.461795390E+02  0.000000000E+00  0.00000E+00  9.000E+00
      21    -1     0     0   502   503  0.000000000E+00  0.000000000E+00 -3.877573021E+02  3.877573021E+02  0.000000000E+00  0.00000E+00  9.000E+00
       6     2     1     2   502     0  1.966062106E+01 -2.485585176E+01 -2.696052563E+02  3.213648202E+02  1.720000000E+02  0.00000E+00  9.000E+00
      -6     2     1     2     0   504 -4.861567788E+01  2.678145607E+01  3.110243553E+01  1.833905451E+02  1.720000000E+02  0.00000E+00  9.000E+00
      24     2     3     3     0     0 -3.763448168E+01  3.102066069E+01 -1.451794066E+02  1.733470239E+02  8.120033850E+01  0.00000E+00  9.000E+00
     -24     2     4     4     0     0 -6.964587119E+01  4.466857507E+01 -2.719053884E+01  1.187155776E+02  8.067362634E+01  0.00000E+00  9.000E+00
     -11     1     5     5     0     0 -4.143365299E+00  1.822383030E+01  4.673894999E+00  1.926449483E+01  6.848052319E-07  0.00000E+00  9.000E+00
      12     1     5     5     0     0 -3.349111639E+01  1.279683039E+01 -1.498533016E+02  1.540825290E+02  2.697398305E-06  0.00000E+00  9.000E+00
      13     1     6     6     0     0 -4.928797493E+00  4.492756300E+01  6.651177661E+00  4.568388256E+01  8.301966356E-07  0.00000E+00  9.000E+00
     -14     1     6     6     0     0 -6.471707370E+01 -2.589879257E-01 -3.384171650E+01  7.303169503E+01  1.430511475E-06  0.00000E+00  9.000E+00
       5     1     3     3   502     0  5.729510275E+01 -5.587651245E+01 -1.244258497E+02  1.480177963E+02  4.750000000E+00  0.00000E+00  9.000E+00
      -5     1     4     4     0   504  2.103019331E+01 -1.788711901E+01  5.829297438E+01  6.467496748E+01  4.750000000E+00  0.00000E+00  9.000E+00
      21     1     1     2   504   511  2.895505681E+01 -1.925604301E+00 -3.074942308E+00  2.918147593E+01  4.636153336E-07  0.00000E+00  9.000E+00
</event>
<event>
     13  10001  1.00000E+00  2.03133E+02 -1.00000E+00  1.13323E-01
      21    -1     0     0   502   503  0.000000000E+00  0.000000000E+00  8.215530098E+02  8.215530098E+02  0.000000000E+00  0.00000E+00  9.000E+00
       1    -1     0     0   503     0  0.000000000E+00  0.000000000E+00 -1.224577914E+03  1.224577914E+03  0.000000000E+00  0.00000E+00  9.000E+00
       6     2     1     2   502     0 -6.174844795E-01  1.318153111E+02  7.722599038E+02  8.020879108E+02  1.720000000E+02  0.00000E+00  9.000E+00
      -6     2     1     2     0   504  6.502538124E+01  6.083582687E+01 -4.306746112E+02  4.722223193E+02  1.720000000E+02  0.00000E+00  9.000E+00
      24     2     3     3     0     0  1.092289801E+01  3.764485760E+01  5.870672096E+02  5.939529755E+02  8.121442983E+01  0.00000E+00  9.000E+00
     -24     2     4     4     0     0  5.468296661E+01  4.858961529E+01 -1.185682652E+02  1.596685335E+02  7.800275337E+01  0.00000E+00  9.000E+00
     -11     1     5     5     0     0  4.483293060E+01  3.042724439E+01  3.065756712E+02  3.113269199E+02  6.607249480E-06  0.00000E+00  9.000E+00
      12     1     5     5     0     0 -3.391003260E+01  7.217613204E+00  2.804915383E+02  2.826260556E+02  3.814697266E-06  0.00000E+00  9.000E+00
      13     1     6     6     0     0 -1.081933883E+01  1.035123144E+01 -6.527566994E+01  6.697103233E+01  0.000000000E+00  0.00000E+00  9.000E+00
     -14     1     6     6     0     0  6.550230544E+01  3.823838386E+01 -5.329259526E+01  9.269750119E+01  9.536743164E-07  0.00000E+00  9.000E+00
       5     1     3     3   502     0 -1.154038248E+01  9.417045355E+01  1.851926943E+02  2.081349352E+02  4.750000000E+00  0.00000E+00  9.000E+00
      -5     1     4     4     0   504  1.034241463E+01  1.224621158E+01 -3.121063460E+02  3.125537857E+02  4.750000000E+00  0.00000E+00  9.000E+00
       1     1     1     2   504     0 -6.440789676E+01 -1.926511380E+02 -7.446101972E+02  7.718206942E+02  0.000000000E+00  0.00000E+00  9.000E+00
</event>
<event>
     13  10001  1.00000E+00  4.18786E+01 -1.00000E+00  1.46862E-01
      21    -1     0     0   502   503  0.000000000E+00  0.000000000E+00  1.319153336E+03  1.319153336E+03  0.000000000E+00  0.00000E+00  9.000E+00
      21    -1     0     0   503   511  0.000000000E+00  0.000000000E+00 -4.910108863E+01  4.910108863E+01  0.000000000E+00  0.00000E+00  9.000E+00
       6     2     1     2   502     0 -2.573432392E+01 -1.294967765E+02  5.556652567E+02  5.964725878E+02  1.720000000E+02  0.00000E+00  9.000E+00
      -6     2     1     2     0   504  6.643930978E+01  1.393416195E+02  6.779823206E+02  7.162920465E+02  1.720000000E+02  0.00000E+00  9.000E+00
      24     2     3     3     0     0 -7.916307033E+01 -8.190878185E+01  2.924272956E+02  3.236429068E+02  7.908961804E+01  0.00000E+00  9.000E+00
     -24     2     4     4     0     0  9.063440294E+01  1.525676507E+02  6.410332646E+02  6.699441698E+02  8.006285858E+01  0.00000E+00  9.000E+00
     -11     1     5     5     0     0 -6.524226572E+01 -9.739944958E+01  2.583737488E+02  2.837255717E+02  3.814697266E-06  0.00000E+00  9.000E+00
      12     1     5     5     0     0 -1.392080461E+01  1.549066773E+01  3.405354682E+01  3.991733506E+01  1.168007728E-06  0.00000E+00  9.000E+00
      13     1     6     6     0     0  6.956039792E+00 -8.864280363E+00  2.143136769E+01  2.421291963E+01  7.907449699E-07  0.00000E+00  9.000E+00
     -14     1     6     6     0     0  8.367836314E+01  1.614319310E+02  6.196018969E+02  6.457312502E+02  7.629394531E-06  0.00000E+00  9.000E+00
       5     1     3     3   502     0  5.342874642E+01 -4.758799461E+01  2.632379611E+02  2.728296810E+02  4.750000000E+00  0.00000E+00  9.000E+00
      -5     1     4     4     0   504 -2.419509315E+01 -1.322603114E+01  3.694905598E+01  4.634787665E+01  4.750000000E+00  0.00000E+00  9.000E+00
      21     1     1     2   504   511 -4.070498587E+01 -9.844843076E+00  3.640466970E+01  5.548978992E+01  8.259061849E-07  0.00000E+00  9.000E+00
</event>
<event>
     13  10001  1.00000E+00  2.26782E+01 -1.00000E+00  1.66162E-01
      21    -1     0     0   512   503  0.000000000E+00  0.000000000E+00  3.216045025E+02  3.216045025E+02  0.000000000E+00  0.00000E+00  9.000E+00
      21    -1     0     0   503   504  0.000000000E+00  0.000000000E+00 -2.560602266E+02  2.560602266E+02  0.000000000E+00  0.00000E+00  9.000E+00
       6     2     1     2   502     0 -1.033847880E+01 -7.323747329E+01 -9.477484239E+01  2.098496662E+02  1.720000000E+02  0.00000E+00  9.000E+00
      -6     2     1     2     0   504  1.687510842E-01  9.350762973E+01 -9.964400531E+00  1.960280454E+02  1.720000000E+02  0.00000E+00  9.000E+00
      24     2     3     3     0     0  2.793021230E+01 -2.165500806E+01 -1.133902138E+02  1.428098423E+02  7.929864018E+01  0.00000E+00  9.000E+00
     -24     2     4     4     0     0 -4.102568372E+01  9.858131846E+01  2.403723733E+01  1.421634220E+02  9.072632857E+01  0.00000E+00  9.000E+00
     -11     1     5     5     0     0  3.891349727E+01 -4.096188646E+01 -1.046738266E+02  1.189485031E+02  2.697398305E-06  0.00000E+00  9.000E+00
      12     1     5     5     0     0 -1.098328497E+01  1.930687840E+01 -8.716387185E+00  2.386133919E+01  6.307962682E-07  0.00000E+00  9.000E+00
      13     1     6     6     0     0  1.464820975E+01 -5.063498573E+00  1.884217418E+01  2.439747107E+01  7.907449699E-07  0.00000E+00  9.000E+00
     -14     1     6     6     0     0 -5.567389347E+01  1.036448170E+02  5.195063149E+00  1.177659509E+02  2.235770146E-06  0.00000E+00  9.000E+00
       5     1     3     3   502     0 -3.826869110E+01 -5.158246523E+01  1.861537137E+01  6.703982390E+01  4.750000000E+00  0.00000E+00  9.000E+00
      -5     1     4     4     0   504  4.119443480E+01 -5.073688736E+00 -3.400163786E+01  5.386462339E+01  4.750000000E+00  0.00000E+00  9.000E+00
      21     1     1     2   512   502  1.016972772E+01 -2.027015644E+01  1.702835188E+02  1.717870175E+02  0.000000000E+00  0.00000E+00  9.000E+00
</event>
<event>
     13  10001  1.00000E+00  1.18663E+01 -1.00000E+00  1.93220E-01
      21    -1     0     0   503   504  0.000000000E+00  0.000000000E+00  3.212919286E+02  3.212919286E+02  0.000000000E+00  0.00000E+00  9.000E+00
      21    -1     0     0   502   511  0.000000000E+00  0.000000000E+00 -7.538712623E+02  7.538712623E+02  0.000000000E+00  0.00000E+00  9.000E+00
       6     2     1     2   502     0 -1.277978902E+01 -1.237540611E+02  2.640986052E+02  3.388369282E+02  1.720000000E+02  0.00000E+00  9.000E+00
      -6     2     1     2     0   504  5.883677282E+00  1.334108019E+02 -6.879658567E+02  7.216052104E+02  1.720000000E+02  0.00000E+00  9.000E+00
      24     2     3     3     0     0 -2.493294657E+01  2.212899174E+00  9.028591391E+01  1.237816133E+02  8.089371293E+01  0.00000E+00  9.000E+00
     -24     2     4     4     0     0 -2.827259910E+01  1.546042775E+02 -5.878602434E+02  6.136259951E+02  7.909091997E+01  0.00000E+00  9.000E+00
     -11     1     5     5     0     0 -3.665792164E+01 -1.605065034E+01  1.089046208E+01  4.147322944E+01  1.198038533E-06  0.00000E+00  9.000E+00
      12     1     5     5     0     0  1.172497507E+01  1.826354951E+01  7.939545184E+01  8.230838386E+01  9.536743164E-07  0.00000E+00  9.000E+00
      13     1     6     6     0     0 -1.286698376E+01  1.972588268E+01 -2.389105980E+01  3.354776381E+01  5.840038640E-07  0.00000E+00  9.000E+00
     -14     1     6     6     0     0 -1.540561535E+01  1.348783949E+02 -5.639691836E+02  5.800782313E+02  0.000000000E+00  0.00000E+00  9.000E+00
       5     1     3     3   502     0  1.215315754E+01 -1.259669603E+02  1.738126913E+02  2.150553149E+02  4.750000000E+00  0.00000E+00  9.000E+00
      -5     1     4     4     0   504  3.415627638E+01 -2.119347561E+01 -1.001056133E+02  1.079792153E+02  4.750000000E+00  0.00000E+00  9.000E+00
      21     1     1     2   503   511  6.896111743E+00 -9.656740845E+00 -8.712082241E+00  1.472105220E+01  1.685873940E-07  0.00000E+00  9.000E+00
</event>
<event>
     13  10001  1.00000E+00  1.05040E+01 -1.00000E+00  1.99376E-01
      21    -1     0     0   503   504  0.000000000E+00  0.000000000E+00  2.791230579E+02  2.791230579E+02  0.000000000E+00  0.00000E+00  9.000E+00
       2    -1     0     0   502     0  0.000000000E+00  0.000000000E+00 -7.998533662E+02  7.998533662E+02  0.000000000E+00  0.00000E+00  9.000E+00
       6     2     1     2   502     0 -2.613225957E+01 -3.794327854E+00  6.677286679E+01  1.863864471E+02  1.720000000E+02  0.00000E+00  9.000E+00
      -6     2     1     2     0   504  1.611926859E+01  6.202581369E-01  1.035796655E+02  2.014273136E+02  1.720000000E+02  0.00000E+00  9.000E+00
      24     2     3     3     0     0 -1.823667991E+01  6.354134479E+01  2.435538043E+01  1.062725367E+02  7.956499547E+01  0.00000E+00  9.000E+00
     -24     2     4     4     0     0 -3.653840942E+01 -1.994399805E+01  1.176876313E+02  1.429694922E+02  6.969274497E+01  0.00000E+00  9.000E+00
     -11     1     5     5     0     0  2.371510618E+01 -2.878877560E+00 -4.387895182E-01  2.389323614E+01  5.010480830E-07  0.00000E+00  9.000E+00
      12     1     5     5     0     0 -4.195178609E+01  6.642022235E+01  2.479416995E+01  8.237930054E+01  1.261592536E-06  0.00000E+00  9.000E+00
      13     1     6     6     0     0 -1.300633642E+01 -3.011273201E+01  1.315785575E+01  3.534219269E+01  7.907449699E-07  0.00000E+00  9.000E+00
     -14     1     6     6     0     0 -2.353207300E+01  1.016873397E+01  1.045297756E+02  1.076272995E+02  0.000000000E+00  0.00000E+00  9.000E+00
       5     1     3     3   502     0 -7.895579660E+00 -6.733567265E+01  4.241748636E+01  8.011391039E+01  4.750000000E+00  0.00000E+00  9.000E+00
      -5     1     4     4     0   504  5.265767801E+01  2.056425618E+01 -1.410796578E+01  5.845782141E+01  4.750000000E+00  0.00000E+00  9.000E+00
       2     1     1     2   503     0  1.001299099E+01  3.174069717E+00 -6.910828406E+02  6.911626634E+02  7.629394531E-06  0.00000E+00  9.000E+00
</event>
<event>
     13  10001  1.00000E+00  2.73789E+01 -1.00000E+00  1.59700E-01
      21    -1     0     0   502   511  0.000000000E+00  0.000000000E+00  5.874707168E+02  5.874707168E+02  0.000000000E+00  0.00000E+00  9.000E+00
      21    -1     0     0   503   504  0.000000000E+00  0.000000000E+00 -1.875236607E+02  1.875236607E+02  0.000000000E+00  0.00000E+00  9.000E+00
       6     2     1     2   502     0 -2.047134851E+01  1.588470705E+01  3.481286715E+02  3.891644536E+02  1.720000000E+02  0.00000E+00  9.000E+00
      -6     2     1     2     0   504 -6.899363948E+00 -1.655343822E+01 -1.208689890E+02  2.109856157E+02  1.720000000E+02  0.00000E+00  9.000E+00
      24     2     3     3     0     0 -6.410107263E+00  6.883525126E+01  2.890038309E+02  3.084192500E+02  8.258231152E+01  0.00000E+00  9.000E+00
     -24     2     4     4     0     0 -1.467631329E+01  3.624529187E+01 -1.289918391E+01  9.045251591E+01  8.053665833E+01  0.00000E+00  9.000E+00
     -11     1     5     5     0     0 -5.832559163E+00  5.599822937E+01  2.901091344E+02  2.955217933E+02  6.607249480E-06  0.00000E+00  9.000E+00
      12     1     5     5     0     0 -5.775481006E-01  1.283702189E+01 -1.105303505E+00  1.289745667E+01  6.857772767E-07  0.00000E+00  9.000E+00
      13     1     6     6     0     0 -4.253703202E+01  2.430175928E+01  1.288634319E+01  5.065602075E+01  1.420542632E-06  0.00000E+00  9.000E+00
     -14     1     6     6     0     0  2.786071873E+01  1.194353259E+01 -2.578552710E+01  3.979649516E+01  4.768371582E-07  0.00000E+00  9.000E+00
       5     1     3     3   502     0 -1.406124125E+01 -5.295054421E+01  5.912484062E+01  8.074520367E+01  4.750000000E+00  0.00000E+00  9.000E+00
      -5     1     4     4     0   504  7.776949342E+00 -5.279873009E+01 -1.079698051E+02  1.205330998E+02  4.750000000E+00  0.00000E+00  9.000E+00
      21     1     1     2   503   511  2.737071246E+01  6.687311671E-01  1.726873736E+02  1.748443082E+02  3.303624740E-06  0.00000E+00  9.000E+00
</event>
<event>
     13  10001  1.00000E+00  9.95088E+00 -1.00000E+00  2.02240E-01
      21    -1     0     0   502   503  0.000000000E+00  0.000000000E+00  2.309774672E+02  2.309774672E+02  0.000000000E+00  0.00000E+00  9.000E+00
      21    -1     0     0   512   504  0.000000000E+00  0.000000000E+00 -4.938479843E+02  4.938479843E+02  0.000000000E+00  0.00000E+00  9.000E+00
       6     2     1     2   502     0 -1.028040788E+02 -2.013925935E+02  3.539082369E+01  2.862938451E+02  1.720000000E+02  0.00000E+00  9.000E+00
      -6     2     1     2     0   504  1.097364533E+02  1.942538123E+02 -2.142322619E+02  3.539153780E+02  1.720000000E+02  0.00000E+00  9.000E+00
      24     2     3     3     0     0 -5.353919400E+01 -1.823264938E+02 -2.311883410E+01  2.073224099E+02  7.961598775E+01  0.00000E+00  9.000E+00
     -24     2     4     4     0     0 -2.770558911E+01  1.201715902E+02 -7.763566603E+01  1.464071055E+02  1.410436662E+01  0.00000E+00  9.000E+00
     -11     1     5     5     0     0 -3.242903351E+01 -9.000201863E+01 -5.124535766E+01  1.085269195E+02  1.168007728E-06  0.00000E+00  9.000E+00
      12     1     5     5     0     0 -2.111016049E+01 -9.232447517E+01  2.812652356E+01  9.879549037E+01  1.261592536E-06  0.00000E+00  9.000E+00
      13     1     6     6     0     0 -1.356757022E+01  4.963097040E+01 -2.461582490E+01  5.703727746E+01  1.168007728E-06  0.00000E+00  9.000E+00
     -14     1     6     6     0     0 -1.413801889E+01  7.054061975E+01 -5.301984114E+01  8.936982806E+01  2.132480600E-06  0.00000E+00  9.000E+00
       5     1     3     3   502     0 -4.926488477E+01 -1.906609975E+01  5.850965779E+01  7.897143525E+01  4.750000000E+00  0.00000E+00  9.000E+00
      -5     1     4     4     0   504  1.374420424E+02  7.408222214E+01 -1.365965959E+02  2.075082725E+02  4.750000000E+00  0.00000E+00  9.000E+00
      21     1     1     2   512   503 -6.932374543E+00  7.138781260E+00 -8.402907883E+01  8.461622837E+01  0.000000000E+00  0.00000E+00  9.000E+00
</event>
<event>
     13  10001  1.00000E+00  1.30542E+01 -1.00000E+00  1.88673E-01
      21    -1     0     0   511   503  0.000000000E+00  0.000000000E+00  3.744726078E+02  3.744726078E+02  0.000000000E+00  0.00000E+00  9.000E+00
      21    -1     0     0   503   504  0.000000000E+00  0.000000000E+00 -1.445398134E+02  1.445398134E+02  0.000000000E+00  0.00000E+00  9.000E+00
       6     2     1     2   502     0  2.192238958E+01 -1.395650434E+02  1.103324039E+02  2.484275183E+02  1.720000000E+02  0.00000E+00  9.000E+00
      -6     2     1     2     0   504 -9.662446137E+00  1.350811076E+02  8.718286746E+01  2.356376899E+02  1.720000000E+02  0.00000E+00  9.000E+00
      24     2     3     3     0     0  1.928267667E+01 -1.304663937E+02  1.795065982E+01  1.554398705E+02  8.028714500E+01  0.00000E+00  9.000E+00
     -24     2     4     4     0     0 -1.378785592E+01  1.389270767E+02  1.208399274E+02  2.011823467E+02  7.988248228E+01  0.00000E+00  9.000E+00
     -11     1     5     5     0     0  1.744353834E+01 -7.026579177E+01  4.925178753E+01  8.756310352E+01  0.000000000E+00  0.00000E+00  9.000E+00
      12     1     5     5     0     0  1.839138325E+00 -6.020060192E+01 -3.130112770E+01  6.787676698E+01  4.768371582E-07  0.00000E+00  9.000E+00
      13     1     6     6     0     0  6.261318791E+00  9.757730430E+01  3.506934530E+01  1.038768184E+02  1.348699152E-06  0.00000E+00  9.000E+00
     -14     1     6     6     0     0 -2.004917471E+01  4.134977238E+01  8.577058212E+01  9.730552831E+01  1.907348633E-06  0.00000E+00  9.000E+00
       5     1     3     3   502     0  2.639712915E+00 -9.098649712E+00  9.238174404E+01  9.298764779E+01  4.750000000E+00  0.00000E+00  9.000E+00
      -5     1     4     4     0   504  4.125409784E+00 -3.845969064E+00 -3.365705996E+01  3.445534311E+01  4.750000000E+00  0.00000E+00  9.000E+00
      21     1     1     2   511   502 -1.225994344E+01  4.483935782E+00  3.241752308E+01  3.494721299E+01  0.000000000E+00  0.00000E+00  9.000E+00
</event>
<event>
     13  10001  1.00000E+00  2.68993E+02 -1.00000E+00  1.08927E-01
      21    -1     0     0   502   503  0.000000000E+00  0.000000000E+00  2.311504410E+02  2.311504410E+02  0.000000000E+00  0.00000E+00  9.000E+00
       2    -1     0     0   503     0  0.000000000E+00  0.000000000E+00 -1.537139887E+03  1.537139887E+03  0.000000000E+00  0.00000E+00  9.000E+00
       6     2     1     2   502     0  5.436652332E+01  2.452582606E+01 -8.891654914E+01  2.026015491E+02  1.720000000E+02  0.00000E+00  9.000E+00
      -6     2     1     2     0   504  2.098482937E+02 -7.500360780E+01  3.624441677E+01  2.838300642E+02  1.720000000E+02  0.00000E+00  9.000E+00
      24     2     3     3     0     0  9.379546448E+01  1.053577024E+01 -9.618317630E+01  1.598729939E+02  8.602080656E+01  0.00000E+00  9.000E+00
     -24     2     4     4     0     0  1.575849924E+02 -9.697606945E+01  6.147807452E+01  2.215922804E+02  1.052910121E+02  0.00000E+00  9.000E+00
     -11     1     5     5     0     0  5.871713541E+01  4.817126478E+01 -5.186169658E+01  9.196634338E+01  1.784161275E-06  0.00000E+00  9.000E+00
      12     1     5     5     0     0  3.507832907E+01 -3.763549454E+01 -4.432147972E+01  6.790665052E+01  9.536743164E-07  0.00000E+00  9.000E+00
      13     1     6     6     0     0  1.565476154E+02 -5.153791342E+01  6.213779195E+01  1.761374963E+02  2.780414531E-06  0.00000E+00  9.000E+00
     -14     1     6     6     0     0  1.037376976E+00 -4.543815602E+01 -6.597174287E-01  4.545478414E+01  1.037612056E-06  0.00000E+00  9.000E+00
       5     1     3     3   502     0 -3.942894116E+01  1.399005582E+01  7.266627165E+00  4.272855524E+01  4.750000000E+00  0.00000E+00  9.000E+00
      -5     1     4     4     0   504  5.226330134E+01  2.197246165E+01 -2.523365775E+01  6.223778371E+01  4.750000000E+00  0.00000E+00  9.000E+00
       2     1     1     2   504     0 -2.642148171E+02  5.047778174E+01 -1.253317313E+03  1.281858714E+03  1.525878906E-05  0.00000E+00  9.000E+00
</event>
<event>
     13  10001  1.00000E+00  3.90101E+01 -1.00000E+00  1.48856E-01
      21    -1     0     0   502   503  0.000000000E+00  0.000000000E+00  4.555509484E+02  4.555509484E+02  0.000000000E+00  0.00000E+00  9.000E+00
      21    -1     0     0   503   511  0.000000000E+00  0.000000000E+00 -1.584925204E+02  1.584925204E+02  0.000000000E+00  0.00000E+00  9.000E+00
       6     2     1     2   502     0 -1.076024932E+02  1.754673918E+01  1.234898631E+02  2.381594653E+02  1.720000000E+02  0.00000E+00  9.000E+00
      -6     2     1     2     0   504  1.462006650E+02 -2.320067525E+01  2.194350298E+02  3.156717252E+02  1.720000000E+02  0.00000E+00  9.000E+00
      24     2     3     3     0     0 -1.341082826E+02 -1.966939576E+01  1.005471851E+02  1.868123471E+02  8.010742801E+01  0.00000E+00  9.000E+00
     -24     2     4     4     0     0  1.055279056E+02 -4.599686405E+01  6.661168978E+01  1.558234367E+02  8.119098380E+01  0.00000E+00  9.000E+00
     -11     1     5     5     0     0 -2.629243909E+01 -3.462548427E+00 -1.288071254E+01  2.948210220E+01  4.129530925E-07  0.00000E+00  9.000E+00
      12     1     5     5     0     0 -1.078158435E+02 -1.620684733E+01  1.134278976E+02  1.573302449E+02  2.336015456E-06  0.00000E+00  9.000E+00
      13     1     6     6     0     0  3.707017173E+01  2.581602208E+00  6.133715760E+01  7.171547395E+01  6.743495762E-07  0.00000E+00  9.000E+00
     -14     1     6     6     0     0  6.845773383E+01 -4.857846626E+01  5.274532183E+00  8.410796273E+01  1.312656137E-06  0.00000E+00  9.000E+00
       5     1     3     3   502     0  2.650578934E+01  3.721613494E+01  2.294267807E+01  5.134711818E+01  4.750000000E+00  0.00000E+00  9.000E+00
      -5     1     4     4     0   504  4.067275947E+01  2.279618880E+01  1.528233400E+02  1.598482885E+02  4.750000000E+00  0.00000E+00  9.000E+00
      21     1     1     2   504   511 -3.859817181E+01  5.653936069E+00 -4.586646489E+01  6.021227832E+01  6.743495762E-07  0.00000E+00  9.000E+00
</event>
<event>
     13  10001  1.00000E+00  1.52849E+01 -1.00000E+00  1.81621E-01
      21    -1     0     0   512   503  0.000000000E+00  0.000000000E+00  9.463344560E+02  9.463344560E+02  0.000000000E+00  0.00000E+00  9.000E+00
      21    -1     0     0   503   504  0.000000000E+00  0.000000000E+00 -6.159000271E+01  6.159000271E+01  0.000000000E+00  0.00000E+00  9.000E+00
       6     2     1     2   502     0 -3.368975374E+01  3.960025724E+01  1.142770753E+02  2.129470117E+02  1.720000000E+02  0.00000E+00  9.000E+00
      -6     2     1     2     0   504  1.937001670E+01 -3.425474125E+01  7.417335124E+02  7.624311040E+02  1.720000000E+02  0.00000E+00  9.000E+00
      24     2     3     3     0     0  2.833961851E+01  3.333205613E+00  1.124783071E+02  1.409141017E+02  7.994479513E+01  0.00000E+00  9.000E+00
     -24     2     4     4     0     0  6.991831097E+01 -5.765613718E+01  4.697930335E+02  4.848037603E+02  7.820736089E+01  0.00000E+00  9.000E+00
     -11     1     5     5     0     0  2.154486533E+01  3.967359349E+01  7.924356106E+01  9.120151979E+01  0.000000000E+00  0.00000E+00  9.000E+00
      12     1     5     5     0     0  6.794753179E+00 -3.634038787E+01  3.323474603E+01  4.971258196E+01  6.743495762E-07  0.00000E+00  9.000E+00
      13     1     6     6     0     0  3.264910063E-01 -1.298876935E+01  7.153601680E+00  1.483201748E+01  3.264680848E-07  0.00000E+00  9.000E+00
     -14     1     6     6     0     0  6.959181996E+01 -4.466736783E+01  4.626394319E+02  4.699717428E+02  7.629394531E-06  0.00000E+00  9.000E+00
       5     1     3     3   502     0 -6.202937225E+01  3.626705163E+01  1.798768164E+00  7.203290999E+01  4.750000000E+00  0.00000E+00  9.000E+00
      -5     1     4     4     0   504 -5.054829426E+01  2.340139593E+01  2.719404789E+02  2.776273436E+02  4.750000000E+00  0.00000E+00  9.000E+00
      21     1     1     2   512   502  1.431973703E+01 -5.345515988E+00  2.873386559E+01  3.254634298E+01  4.768371582E-07  0.00000E+00  9.000E+00
</event>
<event>
     13  10001  1.00000E+00  3.78657E+02 -1.00000E+00  1.04022E-01
       2    -1     0     0   503     0  0.000000000E+00  0.000000000E+00  2.400272715E+03  2.400272715E+03  0.000000000E+00  0.00000E+00  9.000E+00
      21    -1     0     0   502   503  0.000000000E+00  0.000000000E+00 -1.209244755E+02  1.209244755E+02  0.000000000E+00  0.00000E+00  9.000E+00
       6     2     1     2   502     0 -3.247559803E+02  6.504934603E+01  5.439126373E+02  6.596384018E+02  1.720000000E+02  0.00000E+00  9.000E+00
      -6     2     1     2     0   504 -5.389112365E+01 -6.226596576E+01  1.854899184E+02  2.660297230E+02  1.720000000E+02  0.00000E+00  9.000E+00
      24     2     3     3     0     0 -9.362404592E+01  3.553196682E+01  2.801183975E+02  3.076395237E+02  7.840776291E+01  0.00000E+00  9.000E+00
     -24     2     4     4     0     0 -7.362028563E+01 -5.299447724E+01  5.535403673E+01  1.339952179E+02  8.162283978E+01  0.00000E+00  9.000E+00
     -11     1     5     5     0     0 -7.080560093E+01  1.061715361E+01  2.567862018E+02  2.665807767E+02  5.394796609E-06  0.00000E+00  9.000E+00
      12     1     5     5     0     0 -2.281844499E+01  2.491481321E+01  2.333219570E+01  4.105874700E+01  3.371747881E-07  0.00000E+00  9.000E+00
      13     1     6     6     0     0 -1.931801333E+01  1.384079021E+01  3.999389348E+01  4.652165763E+01  8.259061849E-07  0.00000E+00  9.000E+00
     -14     1     6     6     0     0 -5.430227229E+01 -6.683526746E+01  1.536014325E+01  8.747356031E+01  1.563415176E-06  0.00000E+00  9.000E+00
       5     1     3     3   502     0 -2.311319343E+02  2.951737920E+01  2.637942398E+02  3.519988781E+02  4.750000000E+00  0.00000E+00  9.000E+00
      -5     1     4     4     0   504  1.972916198E+01 -9.271488514E+00  1.301358817E+02  1.320345051E+02  4.750000000E+00  0.00000E+00  9.000E+00
       2     1     1     2   504     0  3.786471039E+02 -2.783380270E+00  1.549945684E+03  1.595529066E+03  2.157918644E-05  0.00000E+00  9.000E+00
</event>
<event>
     13  10001  1.00000E+00  7.94298E+01 -1.00000E+00  1.31078E-01
       2    -1     0     0   502     0  0.000000000E+00  0.000000000E+00  8.738391333E+02  8.738391333E+02  0.000000000E+00  0.00000E+00  9.000E+00
      21    -1     0     0   503   504  0.000000000E+00  0.000000000E+00 -7.574831545E+02  7.574831545E+02  0.000000000E+00  0.00000E+00  9.000E+00
       6     2     1     2   502     0  1.386701205E+02 -1.169385202E+02 -9.919773222E+01  2.689390450E+02  1.720000000E+02  0.00000E+00  9.000E+00
      -6     2     1     2     0   504 -8.896563322E+01  5.498244481E+01 -5.536394658E+02  5.890998313E+02  1.720000000E+02  0.00000E+00  9.000E+00
      24     2     3     3     0     0  5.343863824E+01 -6.729120907E+01 -1.199075692E+02  1.680394864E+02  8.047141700E+01  0.00000E+00  9.000E+00
     -24     2     4     4     0     0 -4.256484258E+01  8.398613916E+01 -2.338567837E+02  2.646344650E+02  8.047960848E+01  0.00000E+00  9.000E+00
     -11     1     5     5     0     0 -2.104891436E+01 -1.610901236E+01 -1.922676424E+01  3.274485514E+01  8.259061849E-07  0.00000E+00  9.000E+00
      12     1     5     5     0     0  7.448755260E+01 -5.118219671E+01 -1.006808050E+02  1.352946313E+02  3.015782986E-06  0.00000E+00  9.000E+00
      13     1     6     6     0     0  1.945030838E+01  8.786006440E+00 -1.849440929E+01  2.824095572E+01  0.000000000E+00  0.00000E+00  9.000E+00
     -14     1     6     6     0     0 -6.201515095E+01  7.520013272E+01 -2.153623744E+02  2.363935093E+02  2.697398305E-06  0.00000E+00  9.000E+00
       5     1     3     3   502     0  8.523148223E+01 -4.964731117E+01  2.070983701E+01  1.008995586E+02  4.750000000E+00  0.00000E+00  9.000E+00
      -5     1     4     4     0   504 -4.640079064E+01 -2.900369435E+01 -3.197826821E+02  3.244653663E+02  4.750000000E+00  0.00000E+00  9.000E+00
       2     1     1     2   503     0 -4.970448725E+01  6.195607543E+01  7.691931768E+02  7.732834115E+02  0.000000000E+00  0.00000E+00  9.000E+00
</event>
<event>
     13  10001  1.00000E+00  7.67758E+01 -1.00000E+00  1.31828E-01
      21    -1     0     0   503   504  0.000000000E+00  0.000000000E+00  5.670046402E+02  5.670046402E+02  0.000000000E+00  0.00000E+00  9.000E+00
      21    -1     0     0   511   503  0.000000000E+00  0.000000000E+00 -4.025332615E+02  4.025332615E+02  0.000000000E+00  0.00000E+00  9.000E+00
       6     2     1     2   502     0 -1.513244278E+02  1.017591041E+02  4.040903212E+02  4.755281121E+02  1.720000000E+02  0.00000E+00  9.000E+00
      -6     2     1     2     0   504  1.998155436E+02 -4.223492119E+01 -2.749747196E+01  2.684215919E+02  1.720000000E+02  0.00000E+00  9.000E+00
      24     2     3     3     0     0 -8.865509728E+01  1.025714601E+02  2.207958000E+02  2.817562130E+02  1.107029699E+02  0.00000E+00  9.000E+00
     -24     2     4     4     0     0  7.341243915E+01  3.910720407E+01 -3.785567557E+01  1.176763066E+02  7.413434649E+01  0.00000E+00  9.000E+00
     -11     1     5     5     0     0 -7.330045450E+01  4.910052369E+01  4.844974440E+01  1.006538414E+02  1.651812370E-06  0.00000E+00  9.000E+00
      12     1     5     5     0     0 -1.535464278E+01  5.347093637E+01  1.723460556E+02  1.811023716E+02  1.907348633E-06  0.00000E+00  9.000E+00
      13     1     6     6     0     0  6.815686046E+01  4.122457381E+01 -2.587446046E-01  7.965481820E+01  1.441846167E-06  0.00000E+00  9.000E+00
     -14     1     6     6     0     0  5.255578692E+00 -2.117369737E+00 -3.759693097E+01  3.802148840E+01  1.168007728E-06  0.00000E+00  9.000E+00
       5     1     3     3   502     0 -6.266933054E+01 -8.123559899E-01  1.832945211E+02  1.937718991E+02  4.750000000E+00  0.00000E+00  9.000E+00
      -5     1     4     4     0   504  1.264031045E+02 -8.134212526E+01  1.035820361E+01  1.507452853E+02  4.750000000E+00  0.00000E+00  9.000E+00
      21     1     1     2   511   502 -4.849111581E+01 -5.952418288E+01 -2.121214706E+02  2.255881977E+02  3.814697266E-06  0.00000E+00  9.000E+00
</event>
<event>
     13  10001  1.00000E+00  2.42882E+00 -1.00000E+00  3.46750E-01
      -2    -1     0     0     0   512  0.000000000E+00  0.000000000E+00  1.963391317E+02  1.963391317E+02  0.000000000E+00  0.00000E+00  9.000E+00
       2    -1     0     0   513     0  0.000000000E+00  0.000000000E+00 -2.821779148E+02  2.821779148E+02  0.000000000E+00  0.00000E+00  9.000E+00
       6     2     1     2   502     0 -1.046126551E+02  8.688233749E+01  1.238118280E+01  2.196124811E+02  1.720000000E+02  0.00000E+00  9.000E+00
      -6     2     1     2     0   512  1.049851197E+02 -8.928243266E+01 -7.097048302E+01  2.315470527E+02  1.720000000E+02  0.00000E+00  9.000E+00
      24     2     3     3     0     0 -6.718500760E+01  1.193182836E+02 -2.061369193E+01  1.599120317E+02  7.997659371E+01  0.00000E+00  9.000E+00
     -24     2     4     4     0     0  4.825187332E+00 -8.452516788E+01 -2.062665406E+01  1.192451950E+02  8.140129752E+01  0.00000E+00  9.000E+00
     -11     1     5     5     0     0 -1.057003664E+01  9.616622120E+01 -5.473208177E+00  9.690007112E+01  3.236812111E-06  0.00000E+00  9.000E+00
      12     1     5     5     0     0 -5.661497096E+01  2.315206242E+01 -1.514048375E+01  6.301196061E+01  1.831327855E-06  0.00000E+00  9.000E+00
      13     1     6     6     0     0 -6.646411751E+00 -1.562185553E+00  2.357545416E+01  2.454418977E+01  3.371747881E-07  0.00000E+00  9.000E+00
     -14     1     6     6     0     0  1.147159908E+01 -8.296298233E+01 -4.420210822E+01  9.470100524E+01  2.523185073E-06  0.00000E+00  9.000E+00
       5     1     3     3   502     0 -3.742764749E+01 -3.243594614E+01  3.299487473E+01  5.970044939E+01  4.750000000E+00  0.00000E+00  9.000E+00
      -5     1     4     4     0   512  1.001599324E+02 -4.757264775E+00 -5.034382896E+01  1.123018576E+02  4.750000000E+00  0.00000E+00  9.000E+00
      21     1     1     2   513   502 -3.724646017E-01  2.400095172E+00 -2.724948288E+01  2.735751275E+01  0.000000000E+00  0.00000E+00  9.000E+00
</event>
<event>
     13  10001  1.00000E+00  1.77006E+01 -1.00000E+00  1.75536E-01
      21    -1     0     0   502   503  0.000000000E+00  0.000000000E+00  4.144855914E+02  4.144855914E+02  0.000000000E+00  0.00000E+00  9.000E+00
      21    -1     0     0   503   511  0.000000000E+00  0.000000000E+00 -4.525556314E+02  4.525556314E+02  0.000000000E+00  0.00000E+00  9.000E+00
       6     2     1     2   502     0  4.320101542E+01 -1.514516872E+01  4.654467787E+01  1.839731255E+02  1.720000000E+02  0.00000E+00  9.000E+00
      -6     2     1     2     0   504 -3.023081423E+01  3.100061468E+00  2.735008388E+02  3.245153638E+02  1.720000000E+02  0.00000E+00  9.000E+00
      24     2     3     3     0     0  1.806654215E+00  1.557569945E+01  8.646043972E+01  1.186042076E+02  7.965980175E+01  0.00000E+00  9.000E+00
     -24     2     4     4     0     0 -7.463547094E+01  8.509213479E-01  1.123973212E+02  1.573216496E+02  8.090590857E+01  0.00000E+00  9.000E+00
     -11     1     5     5     0     0 -1.810433963E+01 -2.518817919E+01  1.626633424E+01  3.502577785E+01  4.129530925E-07  0.00000E+00  9.000E+00
      12     1     5     5     0     0  1.991099385E+01  4.076387864E+01  7.019410548E+01  8.357842977E+01  1.651812370E-06  0.00000E+00  9.000E+00
      13     1     6     6     0     0 -2.545081989E+01 -3.903356627E+01  4.354292589E+01  6.377577851E+01  1.581489940E-06  0.00000E+00  9.000E+00
     -14     1     6     6     0     0 -4.918465105E+01  3.988448762E+01  6.885439532E+01  9.354587114E+01  9.536743164E-07  0.00000E+00  9.000E+00
       5     1     3     3   502     0  4.139436121E+01 -3.072086817E+01 -3.991576186E+01  6.536891789E+01  4.750000000E+00  0.00000E+00  9.000E+00
      -5     1     4     4     0   504  4.440465671E+01  2.249140121E+00  1.611035176E+02  1.671937141E+02  4.750000000E+00  0.00000E+00  9.000E+00
      21     1     1     2   504   511 -1.297020120E+01  1.204510725E+01 -3.581155567E+02  3.585527335E+02  5.394796609E-06  0.00000E+00  9.000E+00
</event>
<event>
     13  10001  1.00000E+00  4.18674E+01 -1.00000E+00  1.46869E-01
      -2    -1     0     0     0   512  0.000000000E+00  0.000000000E+00  2.407224715E+02  2.407224715E+02  0.000000000E+00  0.00000E+00  9.000E+00
       2    -1     0     0   513     0  0.000000000E+00  0.000000000E+00 -4.553675073E+02  4.553675073E+02  0.000000000E+00  0.00000E+00  9.000E+00
       6     2     1     2   502     0 -2.115691670E+02 -2.780730532E+01  1.978721259E+01  2.747913616E+02  1.720000000E+02  0.00000E+00  9.000E+00
      -6     2     1     2     0   512  2.066154785E+02  6.938064208E+01 -1.256831233E+02  3.047685629E+02  1.720000000E+02  0.00000E+00  9.000E+00
      24     2     3     3     0     0 -2.293765289E+02 -9.043288673E+00  3.474988905E+01  2.445319061E+02  7.676539103E+01  0.00000E+00  9.000E+00
     -24     2     4     4     0     0  2.018946642E+02  2.145297943E+01 -6.566883843E+01  2.276736615E+02  7.938018674E+01  0.00000E+00  9.000E+00
     -11     1     5     5     0     0 -1.760838797E+02 -3.693117909E+01  1.231671216E+01  1.803362029E+02  6.951036328E-07  0.00000E+00  9.000E+00
      12     1     5     5     0     0 -5.329264917E+01  2.788789041E+01  2.243317690E+01  6.419570323E+01  2.384185791E-07  0.00000E+00  9.000E+00
      13     1     6     6     0     0  1.532661818E+02 -1.465865467E+01 -2.842079758E+01  1.565667282E+02  3.631483605E-06  0.00000E+00  9.000E+00
     -14     1     6     6     0     0  4.862848235E+01  3.611163410E+01 -3.724804085E+01  7.110693328E+01  6.743495762E-07  0.00000E+00  9.000E+00
       5     1     3     3   502     0  1.780736192E+01 -1.876401665E+01 -1.496267646E+01  3.025945548E+01  4.750000000E+00  0.00000E+00  9.000E+00
      -5     1     4     4     0   512  4.720814330E+00  4.792766265E+01 -6.001428487E+01  7.709490141E+01  4.750000000E+00  0.00000E+00  9.000E+00
      21     1     1     2   513   502  4.953688429E+00 -4.157333675E+01 -1.087491250E+02  1.165300543E+02  1.348699152E-06  0.00000E+00  9.000E+00
</event>
<event>
     13  10001  1.00000E+00  2.37656E+01 -1.00000E+00  1.64506E-01
      21    -1     0     0   502   511  0.000000000E+00  0.000000000E+00  5.373585231E+02  5.373585231E+02  0.000000000E+00  0.00000E+00  9.000E+00
      21    -1     0     0   503   504  0.000000000E+00  0.000000000E+00 -1.240794292E+02  1.240794292E+02  0.000000000E+00  0.00000E+00  9.000E+00
       6     2     1     2   502     0 -1.530571268E+00  1.701523140E+02  2.895425988E+02  3.773235602E+02  1.720000000E+02  0.00000E+00  9.000E+00
      -6     2     1     2     0   504  1.574348076E+01 -1.511051358E+02  9.937245635E+01  2.500789962E+02  1.720000000E+02  0.00000E+00  9.000E+00
      24     2     3     3     0     0  2.532677910E+01  6.991771022E+01  5.918999068E+01  1.246316933E+02  8.062054350E+01  0.00000E+00  9.000E+00
     -24     2     4     4     0     0  5.945537503E+00  8.730292235E-01  1.631810397E+01  7.654528105E+01  7.454386586E+01  0.00000E+00  9.000E+00
     -11     1     5     5     0     0  5.142837165E+01  6.120604530E+01  5.440849858E+01  9.670233766E+01  1.348699152E-06  0.00000E+00  9.000E+00
      12     1     5     5     0     0 -2.610159255E+01  8.711664917E+00  4.781492100E+00  2.792935563E+01  9.253129182E-07  0.00000E+00  9.000E+00
      13     1     6     6     0     0  2.674821861E+01  2.026559387E+01  2.997511138E+01  4.499631980E+01  8.259061849E-07  0.00000E+00  9.000E+00
     -14     1     6     6     0     0 -2.080268111E+01 -1.939256465E+01 -1.365700740E+01  3.154896125E+01  1.066240300E-06  0.00000E+00  9.000E+00
       5     1     3     3   502     0 -2.685735036E+01  1.002346037E+02  2.303526081E+02  2.526918669E+02  4.750000000E+00  0.00000E+00  9.000E+00
      -5     1     4     4     0   504  9.797943259E+00 -1.519781651E+02  8.305435237E+01  1.735337152E+02  4.750000000E+00  0.00000E+00  9.000E+00
      21     1     1     2   503   511 -1.421290949E+01 -1.904717811E+01  2.436403870E+01  3.403539587E+01  0.000000000E+00  0.00000E+00  9.000E+00
</event>
<event>
     13  10001  1.00000E+00  8.80234E+01 -1.00000E+00  1.28863E-01
      21    -1     0     0   502   503  0.000000000E+00  0.000000000E+00  1.425074250E+02  1.425074250E+02  0.000000000E+00  0.00000E+00  9.000E+00
      21    -1     0     0   503   512  0.000000000E+00  0.000000000E+00 -9.645957992E+02  9.645957992E+02  0.000000000E+00  0.00000E+00  9.000E+00
       6     2     1     2   502     0 -1.712883964E+02 -5.456706977E+01 -8.314344126E+01  2.623244397E+02  1.720000000E+02  0.00000E+00  9.000E+00
      -6     2     1     2     0   504  2.492475676E+02  9.543855045E+01 -5.266841349E+02  6.149902803E+02  1.720000000E+02  0.00000E+00  9.000E+00
      24     2     3     3     0     0 -8.114820156E+01 -3.112749598E+01 -1.131224446E+02  1.643654101E+02  8.164158822E+01  0.00000E+00  9.000E+00
     -24     2     4     4     0     0  9.604983978E+01  8.620835956E+01 -3.468100854E+02  3.784908586E+02  7.950246399E+01  0.00000E+00  9.000E+00
     -11     1     5     5     0     0 -9.231846748E+01 -3.057061358E+01 -1.173505856E+02  1.524087327E+02  3.568322551E-06  0.00000E+00  9.000E+00
      12     1     5     5     0     0  1.117026592E+01 -5.568824010E-01  4.228140964E+00  1.195667741E+01  4.420398764E-07  0.00000E+00  9.000E+00
      13     1     6     6     0     0  4.499379466E+01  2.413317897E+00 -5.786496414E+01  7.333907373E+01  2.023048729E-06  0.00000E+00  9.000E+00
     -14     1     6     6     0     0  5.105604513E+01  8.379504167E+01 -2.889451212E+02  3.051517849E+02  5.394796609E-06  0.00000E+00  9.000E+00
       5     1     3     3   502     0 -9.014019484E+01 -2.343957379E+01  2.997900336E+01  9.795902964E+01  4.750000000E+00  0.00000E+00  9.000E+00
      -5     1     4     4     0   504  1.531977278E+02  9.230190890E+00 -1.798740495E+02  2.364994216E+02  4.750000000E+00  0.00000E+00  9.000E+00
      21     1     1     2   504   512 -7.795917121E+01 -4.087148068E+01 -2.122607981E+02  2.297885043E+02  2.697398305E-06  0.00000E+00  9.000E+00
</event>
<event>
     13  10001  1.00000E+00  1.18587E+01 -1.00000E+00  1.93251E-01
      21    -1     0     0   502   503  0.000000000E+00  0.000000000E+00  9.261009738E+01  9.261009738E+01  0.000000000E+00  0.00000E+00  9.000E+00
      21    -1     0     0   503   511  0.000000000E+00  0.000000000E+00 -4.419442176E+02  4.419442176E+02  0.000000000E+00  0.00000E+00  9.000E+00
       6     2     1     2   502     0 -2.341521023E+01  9.452065236E+00 -1.776193907E+02  2.485362379E+02  1.720000000E+02  0.00000E+00  9.000E+00
      -6     2     1     2     0   504  3.248924685E+01 -1.817182624E+00 -7.814791661E+01  1.917027652E+02  1.720000000E+02  0.00000E+00  9.000E+00
      24     2     3     3     0     0  2.624666817E+01  4.367004058E+01 -1.577295466E+02  1.848546833E+02  8.183326973E+01  0.00000E+00  9.000E+00
     -24     2     4     4     0     0 -6.625983843E-01 -6.500187690E+01 -4.070100591E+01  1.109798809E+02  8.021395788E+01  0.00000E+00  9.000E+00
     -11     1     5     5     0     0  1.938138744E+01  1.453964677E+01 -1.525735366E+02  1.544853507E+02  2.697398305E-06  0.00000E+00  9.000E+00
      12     1     5     5     0     0  6.865280731E+00  2.913039382E+01 -5.156009970E+00  3.036933259E+01  7.468440584E-07  0.00000E+00  9.000E+00
      13     1     6     6     0     0 -3.259400061E+01 -4.801096598E+00 -2.416312821E+01  4.085677629E+01  1.118282261E-06  0.00000E+00  9.000E+00
     -14     1     6     6     0     0  3.193140223E+01 -6.020078030E+01 -1.653787771E+01  7.012310458E+01  2.008950656E-06  0.00000E+00  9.000E+00
       5     1     3     3   502     0 -4.966187840E+01 -3.421797535E+01 -1.988984415E+01  6.368155465E+01  4.750000000E+00  0.00000E+00  9.000E+00
      -5     1     4     4     0   504  3.315184523E+01  6.318469427E+01 -3.744691069E+01  8.072288432E+01  4.750000000E+00  0.00000E+00  9.000E+00
      21     1     1     2   504   511 -9.074036613E+00 -7.634882612E+00 -9.356681291E+01  9.431531186E+01  1.907348633E-06  0.00000E+00  9.000E+00
</event>
<event>
     13  10001  1.00000E+00  1.46438E+01 -1.00000E+00  1.83482E-01
      21    -1     0     0   512   503  0.000000000E+00  0.000000000E+00  4.961089027E+02  4.961089027E+02  0.000000000E+00  0.00000E+00  9.000E+00
      21    -1     0     0   503   504  0.000000000E+00  0.000000000E+00 -1.622167593E+02  1.622167593E+02  0.000000000E+00  0.00000E+00  9.000E+00
       6     2     1     2   502     0 -1.285129342E+02  4.856567419E+01  2.586310373E+02  3.396295223E+02  1.720000000E+02  0.00000E+00  9.000E+00
      -6     2     1     2     0   504  1.344030139E+02 -6.197263631E+01 -1.485582896E+01  2.273971712E+02  1.720000000E+02  0.00000E+00  9.000E+00
      24     2     3     3     0     0 -1.393028724E+02  3.343475785E+00  2.407059763E+02  2.895761477E+02  8.061333129E+01  0.00000E+00  9.000E+00
     -24     2     4     4     0     0  1.155232839E+02 -1.081058394E+02 -1.394016082E+01  1.773160612E+02  7.882991706E+01  0.00000E+00  9.000E+00
     -11     1     5     5     0     0 -7.507370994E+01 -1.296152704E+01  5.960031941E+01  9.672776841E+01  6.743495762E-07  0.00000E+00  9.000E+00
      12     1     5     5     0     0 -6.422916250E+01  1.630500282E+01  1.811056569E+02  1.928483793E+02  2.697398305E-06  0.00000E+00  9.000E+00
      13     1     6     6     0     0  1.184377197E+02 -8.902082952E+01  7.640904115E+00  1.483596474E+02  2.955092253E-06  0.00000E+00  9.000E+00
     -14     1     6     6     0     0 -2.914435806E+00 -1.908500986E+01 -2.158106493E+01  2.895641381E+01  7.152557373E-07  0.00000E+00  9.000E+00
       5     1     3     3   502     0  1.078993828E+01  4.522219841E+01  1.792506099E+01  5.005337460E+01  4.750000000E+00  0.00000E+00  9.000E+00
      -5     1     4     4     0   504  1.887972996E+01  4.613320307E+01 -9.156681384E-01  5.008110998E+01  4.750000000E+00  0.00000E+00  9.000E+00
      21     1     1     2   512   502 -5.890079736E+00  1.340696211E+01  9.011693507E+01  9.129896855E+01  9.536743164E-07  0.00000E+00  9.000E+00
</event>
<event>
     13  10001  1.00000E+00  3.33223E+02 -1.00000E+00  1.05802E-01
       2    -1     0     0   502     0  0.000000000E+00  0.000000000E+00  6.694368851E+02  6.694368851E+02  0.000000000E+00  0.00000E+00  9.000E+00
      21    -1     0     0   503   504  0.000000000E+00  0.000000000E+00 -7.936069875E+02  7.936069875E+02  0.000000000E+00  0.00000E+00  9.000E+00
       6     2     1     2   502     0 -2.723279199E+02  1.093525167E+02  1.559485087E+01  3.405108930E+02  1.720000000E+02  0.00000E+00  9.000E+00
      -6     2     1     2     0   504 -7.115468502E-01  8.166357089E+01 -5.569534049E+02  5.886004930E+02  1.720000000E+02  0.00000E+00  9.000E+00
      24     2     3     3     0     0 -5.936545461E+01  4.659258550E+01  4.444029063E+00  1.181626888E+02  9.081599748E+01  0.00000E+00  9.000E+00
     -24     2     4     4     0     0 -3.179536542E+01  1.151985651E+02 -4.160217603E+02  4.403605167E+02  8.100385769E+01  0.00000E+00  9.000E+00
     -11     1     5     5     0     0 -4.008283191E+01  1.269125502E+01 -4.069165329E+01  5.851078546E+01  1.261592536E-06  0.00000E+00  9.000E+00
      12     1     5     5     0     0 -1.928262270E+01  3.390133048E+01  4.513568235E+01  5.965190331E+01  1.430511475E-06  0.00000E+00  9.000E+00
      13     1     6     6     0     0  1.353452820E+01  4.854250162E+01 -2.589938519E+02  2.638510436E+02  5.394796609E-06  0.00000E+00  9.000E+00
     -14     1     6     6     0     0 -4.532989362E+01  6.665606352E+01 -1.570279084E+02  1.765094730E+02  3.303624740E-06  0.00000E+00  9.000E+00
       5     1     3     3   502     0 -2.129624653E+02  6.275993116E+01  1.115082181E+01  2.223482042E+02  4.750000000E+00  0.00000E+00  9.000E+00
      -5     1     4     4     0   504  3.108381857E+01 -3.353499425E+01 -1.409316446E+02  1.482399763E+02  4.750000000E+00  0.00000E+00  9.000E+00
       2     1     1     2   503     0  2.730394668E+02 -1.910160875E+02  4.171884517E+02  5.339324867E+02  0.000000000E+00  0.00000E+00  9.000E+00
</event>
<event>
     13  10001  1.00000E+00  2.11691E+01 -1.00000E+00  1.68662E-01
      21    -1     0     0   503   511  0.000000000E+00  0.000000000E+00  2.281659083E+02  2.281659083E+02  0.000000000E+00  0.00000E+00  9.000E+00
      21    -1     0     0   502   503  0.000000000E+00  0.000000000E+00 -2.273534083E+02  2.273534083E+02  0.000000000E+00  0.00000E+00  9.000E+00
       6     2     1     2   502     0 -3.744078131E+01 -5.742269445E+01  7.245153680E+01  1.988275713E+02  1.720000000E+02  0.00000E+00  9.000E+00
      -6     2     1     2     0   504  1.650891180E+01  6.058282123E+01 -1.094763584E+02  2.133351716E+02  1.720000000E+02  0.00000E+00  9.000E+00
      24     2     3     3     0     0 -3.658697830E+01  2.976587953E+01  1.812948840E+01  9.598777431E+01  8.161102807E+01  0.00000E+00  9.000E+00
     -24     2     4     4     0     0  6.423724354E+01  6.277976141E+01 -1.174879279E+02  1.646569636E+02  7.239323553E+01  0.00000E+00  9.000E+00
     -11     1     5     5     0     0 -5.953744437E+01  1.172185143E+01 -1.685860995E+00  6.070379898E+01  8.079672880E-07  0.00000E+00  9.000E+00
      12     1     5     5     0     0  2.295046608E+01  1.804402810E+01  1.981534940E+01  3.528397533E+01  0.000000000E+00  0.00000E+00  9.000E+00
      13     1     6     6     0     0  1.235895870E+01 -1.563823672E+01 -3.129282747E+01  3.710174334E+01  4.768371582E-07  0.00000E+00  9.000E+00
     -14     1     6     6     0     0  5.187828484E+01  7.841799814E+01 -8.619510040E+01  1.275552202E+02  1.348699152E-06  0.00000E+00  9.000E+00
       5     1     3     3   502     0 -8.538030122E-01 -8.718857398E+01  5.432204840E+01  1.028397970E+02  4.750000000E+00  0.00000E+00  9.000E+00
      -5     1     4     4     0   504 -4.772833173E+01 -2.196940179E+00  8.011569448E+00  4.867820807E+01  4.750000000E+00  0.00000E+00  9.000E+00
      21     1     1     2   504   511  2.093186950E+01 -3.160126780E+00  3.783732163E+01  4.335657356E+01  4.768371582E-07  0.00000E+00  9.000E+00
</event>
<event>
     13  10001  1.00000E+00  2.44712E+01 -1.00000E+00  1.63488E-01
      21    -1     0     0   503   512  0.000000000E+00  0.000000000E+00  9.427747899E+02  9.427747899E+02  0.000000000E+00  0.00000E+00  9.000E+00
      21    -1     0     0   502   503  0.000000000E+00  0.000000000E+00 -1.401810913E+02  1.401810913E+02  0.000000000E+00  0.00000E+00  9.000E+00
       6     2     1     2   502     0 -1.620377736E+01  2.356390444E+01 -6.931665609E+01  1.876342687E+02  1.720000000E+02  0.00000E+00  9.000E+00
      -6     2     1     2     0   504  3.932874263E+01 -1.555907145E+01  7.995932172E+02  8.189762803E+02  1.720000000E+02  0.00000E+00  9.000E+00
      24     2     3     3     0     0  2.105351592E+01 -1.794974775E+00  1.279441867E+01  9.384743728E+01  9.053823428E+01  0.00000E+00  9.000E+00
     -24     2     4     4     0     0 -5.500514825E+00 -5.151714593E+01  2.726605012E+02  2.888977058E+02  8.021136776E+01  0.00000E+00  9.000E+00
     -11     1     5     5     0     0  2.268916132E+01  3.553225987E+01  3.095707341E+01  5.230372766E+01  1.305872339E-06  0.00000E+00  9.000E+00
      12     1     5     5     0     0 -1.635645400E+00 -3.732723464E+01 -1.816265474E+01  4.154370962E+01  1.469710828E-06  0.00000E+00  9.000E+00
      13     1     6     6     0     0 -3.964897116E+01 -1.838464121E+01  8.868237676E+01  9.886657623E+01  1.348699152E-06  0.00000E+00  9.000E+00
     -14     1     6     6     0     0  3.414845633E+01 -3.313250472E+01  1.839781244E+02  1.900311295E+02  0.000000000E+00  0.00000E+00  9.000E+00
       5     1     3     3   502     0 -3.725729329E+01  2.535887921E+01 -8.211107475E+01  9.378683146E+01  4.750000000E+00  0.00000E+00  9.000E+00
      -5     1     4     4     0   504  4.482925745E+01  3.595807448E+01  5.269327160E+02  5.300785745E+02  4.750000000E+00  0.00000E+00  9.000E+00
      21     1     1     2   504   512 -2.312496526E+01 -8.004832982E+00  7.231713753E+01  7.634533221E+01  1.651812370E-06  0.00000E+00  9.000E+00
</event>
<event>
     13  10001  1.00000E+00  1.10502E+01 -1.00000E+00  1.96768E-01
      21    -1     0     0   511   504  0.000000000E+00  0.000000000E+00  6.226120998E+01  6.226120998E+01  0.000000000E+00  0.00000E+00  9.000E+00
      21    -1     0     0   502   503  0.000000000E+00  0.000000000E+00 -1.323704814E+03  1.323704814E+03  0.000000000E+00  0.00000E+00  9.000E+00
       6     2     1     2   502     0 -7.851683062E+01 -6.666526735E+01 -1.091380215E+03  1.109641349E+03  1.720000000E+02  0.00000E+00  9.000E+00
      -6     2     1     2     0   504  7.992030110E+01  7.762598950E+01 -1.681980091E+02  2.651181228E+02  1.720000000E+02  0.00000E+00  9.000E+00
      24     2     3     3     0     0 -9.415640199E+01 -9.797317290E+01 -9.849598487E+02  9.975135740E+02  8.014521927E+01  0.00000E+00  9.000E+00
     -24     2     4     4     0     0  1.071979375E+02  4.114468018E+01 -1.680901158E+02  2.193193290E+02  8.162351690E+01  0.00000E+00  9.000E+00
     -11     1     5     5     0     0 -5.767962568E+01 -3.433860485E+01 -2.483903790E+02  2.573011065E+02  6.607249480E-06  0.00000E+00  9.000E+00
      12     1     5     5     0     0 -3.647677631E+01 -6.363456805E+01 -7.365694696E+02  7.402124675E+02  1.525878906E-05  0.00000E+00  9.000E+00
      13     1     6     6     0     0  5.642277350E+01  1.876674108E+01 -1.493510318E+02  1.607527625E+02  0.000000000E+00  0.00000E+00  9.000E+00
     -14     1     6     6     0     0  5.077516404E+01  2.237793909E+01 -1.873908396E+01  5.856656648E+01  2.185142372E-06  0.00000E+00  9.000E+00
       5     1     3     3   502     0  1.563957137E+01  3.130790555E+01 -1.064203663E+02  1.121277753E+02  4.750000000E+00  0.00000E+00  9.000E+00
      -5     1     4     4     0   504 -2.727763645E+01  3.648130932E+01 -1.078933779E-01  4.579879388E+01  4.750000000E+00  0.00000E+00  9.000E+00
      21     1     1     2   511   503 -1.403470482E+00 -1.096072215E+01 -1.865379813E+00  1.120655171E+01  4.833124501E-07  0.00000E+00  9.000E+00
</event>
<event>
     13  10001  1.00000E+00  1.53541E+02 -1.00000E+00  1.18080E-01
      21    -1     0     0   503   504  0.000000000E+00  0.000000000E+00  1.221041302E+03  1.221041302E+03  0.000000000E+00  0.00000E+00  9.000E+00
      21    -1     0     0   502   512  0.000000000E+00  0.000000000E+00 -1.815374055E+02  1.815374055E+02  0.000000000E+00  0.00000E+00  9.000E+00
       6     2     1     2   502     0  2.431726781E+02  3.480144443E+01  9.533682857E+02  9.994194215E+02  1.720000000E+02  0.00000E+00  9.000E+00
      -6     2     1     2     0   504 -1.407158528E+02  7.955555315E+01  2.304240959E+01  2.371602621E+02  1.720000000E+02  0.00000E+00  9.000E+00
      24     2     3     3     0     0  4.500353904E+01  4.158381056E+01  3.589607120E+02  3.727935887E+02  7.979809014E+01  0.00000E+00  9.000E+00
     -24     2     4     4     0     0 -2.205056681E+01  9.944028416E+01  3.821426610E+00  1.152223216E+02  5.373064761E+01  0.00000E+00  9.000E+00
     -11     1     5     5     0     0  3.705024775E+01  6.112955508E+00  5.458092863E+01  6.625078757E+01  2.611744678E-06  0.00000E+00  9.000E+00
      12     1     5     5     0     0  7.953291291E+00  3.547085506E+01  3.043797834E+02  3.065428011E+02  0.000000000E+00  0.00000E+00  9.000E+00
      13     1     6     6     0     0  1.179719028E+01  3.888203284E+00  6.074758190E+00  1.382731031E+01  2.064765462E-07  0.00000E+00  9.000E+00
     -14     1     6     6     0     0 -3.384775709E+01  9.555208088E+01 -2.253331580E+00  1.013950113E+02  1.210942844E-06  0.00000E+00  9.000E+00
       5     1     3     3   502     0  1.981691391E+02 -6.782366130E+00  5.944075737E+02  6.266258328E+02  4.750000000E+00  0.00000E+00  9.000E+00
      -5     1     4     4     0   504 -1.186652860E+02 -1.988473101E+01  1.922098298E+01  1.219379404E+02  4.750000000E+00  0.00000E+00  9.000E+00
      21     1     1     2   503   512 -1.024568253E+02 -1.143569976E+02  6.309320133E+01  1.659990241E+02  1.168007728E-06  0.00000E+00  9.000E+00
</event>
<event>
     13  10001  1.00000E+00  9.77573E+00 -1.00000E+00  2.03198E-01
      21    -1     0     0   503   511  0.000000000E+00  0.000000000E+00  8.444435692E+02  8.444435692E+02  0.000000000E+00  0.00000E+00  9.000E+00
      21    -1     0     0   502   503  0.000000000E+00  0.000000000E+00 -4.643385207E+01  4.643385207E+01  0.000000000E+00  0.00000E+00  9.000E+00
       6     2     1     2   502     0  9.832770773E+00 -7.000058213E+01  2.895720230E+02  3.441405547E+02  1.720000000E+02  0.00000E+00  9.000E+00
      -6     2     1     2     0   504 -4.479270413E+00  7.818012756E+01  4.597546329E+02  4.970820040E+02  1.720000000E+02  0.00000E+00  9.000E+00
      24     2     3     3     0     0  4.718402800E+01 -9.579968422E+00  2.390235012E+02  2.568279981E+02  8.068629506E+01  0.00000E+00  9.000E+00
     -24     2     4     4     0     0 -1.007301996E+01  9.712914808E+01  2.006715774E+02  2.372032870E+02  8.037897880E+01  0.00000E+00  9.000E+00
     -11     1     5     5     0     0 -1.108079154E+00  2.688113932E+01  1.237162030E+02  1.266077501E+02  2.336015456E-06  0.00000E+00  9.000E+00
      12     1     5     5     0     0  4.829210715E+01 -3.646110775E+01  1.153072981E+02  1.302202480E+02  1.348699152E-06  0.00000E+00  9.000E+00
      13     1     6     6     0     0  1.336309806E+01  8.109669856E+01  1.897399960E+02  2.067764808E+02  0.000000000E+00  0.00000E+00  9.000E+00
     -14     1     6     6     0     0 -2.343611802E+01  1.603244952E+01  1.093158142E+01  3.042680624E+01  9.973764736E-07  0.00000E+00  9.000E+00
       5     1     3     3   502     0 -3.735125723E+01 -6.042061371E+01  5.054852185E+01  8.731255659E+01  4.750000000E+00  0.00000E+00  9.000E+00
      -5     1     4     4     0   504  5.593749547E+00 -1.894902052E+01  2.590830555E+02  2.598787170E+02  4.750000000E+00  0.00000E+00  9.000E+00
      21     1     1     2   504   511 -5.353500361E+00 -8.179545424E+00  4.868306121E+01  4.965486258E+01  6.743495762E-07  0.00000E+00  9.000E+00
</event>
<event>
     13  10001  1.00000E+00  9.55392E+01 -1.00000E+00  1.27150E-01
       2    -1     0     0   503     0  0.000000000E+00  0.000000000E+00  1.023713749E+03  1.023713749E+03  0.000000000E+00  0.00000E+00  9.000E+00
      21    -1     0     0   502   503  0.000000000E+00  0.000000000E+00 -2.849931137E+02  2.849931137E+02  0.000000000E+00  0.00000E+00  9.000E+00
       6     2     1     2   502     0  1.136769118E+02 -2.373846877E+01  2.274824952E+02  3.079257066E+02  1.720000000E+02  0.00000E+00  9.000E+00
      -6     2     1     2     0   504 -1.998173753E+02 -1.758409960E+01 -1.691365455E+02  3.137313422E+02  1.720000000E+02  0.00000E+00  9.000E+00
      24     2     3     3     0     0  4.291078915E+01  2.618333870E+01  4.177031751E+01  1.029583765E+02  7.955353427E+01  0.00000E+00  9.000E+00
     -24     2     4     4     0     0 -2.193601236E+02  5.270661694E+00 -1.547349918E+02  2.800530647E+02  7.962510687E+01  0.00000E+00  9.000E+00
     -11     1     5     5     0     0 -1.624972391E+01 -1.269598627E+01 -2.715339623E-01  2.062317448E+01  6.040142082E-07  0.00000E+00  9.000E+00
      12     1     5     5     0     0  5.916051306E+01  3.887932497E+01  4.204185147E+01  8.233520202E+01  2.977847099E-06  0.00000E+00  9.000E+00
      13     1     6     6     0     0 -7.114958917E+01  3.590090559E+01 -3.485106584E+01  8.698123850E+01  1.261592536E-06  0.00000E+00  9.000E+00
     -14     1     6     6     0     0 -1.482105345E+02 -3.063024390E+01 -1.198839259E+02  1.930718262E+02  3.015782986E-06  0.00000E+00  9.000E+00
       5     1     3     3   502     0  7.076612269E+01 -4.992180747E+01  1.857121777E+02  2.049673302E+02  4.750000000E+00  0.00000E+00  9.000E+00
      -5     1     4     4     0   504  1.954274831E+01 -2.285476130E+01 -1.440155372E+01  3.367827749E+01  4.750000000E+00  0.00000E+00  9.000E+00
       2     1     1     2   504     0  8.614046347E+01  4.132256837E+01  6.803746855E+02  6.870498139E+02  7.629394531E-06  0.00000E+00  9.000E+00
</event>
<event>
     13  10001  1.00000E+00  4.83489E+01 -1.00000E+00  1.42988E-01
      21    -1     0     0   511   512  0.000000000E+00  0.000000000E+00  3.108499728E+02  3.108499728E+02  0.000000000E+00  0.00000E+00  9.000E+00
       2    -1     0     0   502     0  0.000000000E+00  0.000000000E+00 -3.692447901E+02  3.692447901E+02  0.000000000E+00  0.00000E+00  9.000E+00
       6     2     1     2   502     0 -1.410193384E+02  3.878014090E+01  2.536141714E+01  2.271949705E+02  1.720000000E+02  0.00000E+00  9.000E+00
      -6     2     1     2     0   512  9.646568827E+01 -5.755738325E+01 -2.243669853E+02  3.042088518E+02  1.720000000E+02  0.00000E+00  9.000E+00
      24     2     3     3     0     0 -9.017654938E+01 -4.227305265E+01 -7.986675782E+00  1.257589454E+02  7.637214363E+01  0.00000E+00  9.000E+00
     -24     2     4     4     0     0  3.123630447E+01 -9.510341013E+01 -1.233427430E+02  1.781412640E+02  8.062575490E+01  0.00000E+00  9.000E+00
     -11     1     5     5     0     0 -3.832907184E+00 -2.689761400E+01 -2.441970442E+01  3.653073747E+01  4.768371582E-07  0.00000E+00  9.000E+00
      12     1     5     5     0     0 -8.634364219E+01 -1.537543865E+01  1.643302864E+01  8.922820793E+01  1.168007728E-06  0.00000E+00  9.000E+00
      13     1     6     6     0     0  8.998910122E+00 -4.138959993E+01 -6.378004017E-01  4.236137574E+01  8.861180701E-07  0.00000E+00  9.000E+00
     -14     1     6     6     0     0  2.223739435E+01 -5.371381021E+01 -1.227049426E+02  1.357798883E+02  3.814697266E-06  0.00000E+00  9.000E+00
       5     1     3     3   502     0 -5.084278903E+01  8.105319355E+01  3.334809292E+01  1.014360251E+02  4.750000000E+00  0.00000E+00  9.000E+00
      -5     1     4     4     0   512  6.522938380E+01  3.754602688E+01 -1.010242423E+02  1.260675877E+02  4.750000000E+00  0.00000E+00  9.000E+00
       2     1     1     2   511     0  4.455365013E+01  1.877724234E+01  1.406107509E+02  1.486909406E+02  2.697398305E-06  0.00000E+00  9.000E+00
</event>
<event>
     13  10001  1.00000E+00  7.35128E+01 -1.00000E+00  1.32800E-01
      21    -1     0     0   512   503  0.000000000E+00  0.000000000E+00  9.795311582E+02  9.795311582E+02  0.000000000E+00  0.00000E+00  9.000E+00
      21    -1     0     0   503   504  0.000000000E+00  0.000000000E+00 -2.797322146E+02  2.797322146E+02  0.000000000E+00  0.00000E+00  9.000E+00
       6     2     1     2   502     0 -3.872774301E+02  1.448636328E+02  3.146418106E+02  5.473141227E+02  1.720000000E+02  0.00000E+00  9.000E+00
      -6     2     1     2     0   504  4.248507882E+02 -8.167840577E+01  1.889980829E+02  5.024677398E+02  1.720000000E+02  0.00000E+00  9.000E+00
      24     2     3     3     0     0 -3.465548387E+02  1.562154446E+02  3.212710678E+02  5.042594757E+02  8.098764378E+01  0.00000E+00  9.000E+00
     -24     2     4     4     0     0  4.169888307E+02 -4.836977309E+01  1.902335872E+02  4.678936981E+02  8.072406803E+01  0.00000E+00  9.000E+00
     -11     1     5     5     0     0 -2.433000436E+02  1.020379450E+02  1.724252100E+02  3.151778965E+02  6.031565972E-06  0.00000E+00  9.000E+00
      12     1     5     5     0     0 -1.032547951E+02  5.417749960E+01  1.488458579E+02  1.890815792E+02  3.303624740E-06  0.00000E+00  9.000E+00
      13     1     6     6     0     0  2.808194815E+02 -4.997808958E+01  1.646157949E+02  3.293262069E+02  4.264961200E-06  0.00000E+00  9.000E+00
     -14     1     6     6     0     0  1.361693492E+02  1.608316491E+00  2.561779239E+01  1.385674912E+02  1.651812370E-06  0.00000E+00  9.000E+00
       5     1     3     3   502     0 -4.072259141E+01 -1.135181174E+01 -6.629257260E+00  4.305464705E+01  4.750000000E+00  0.00000E+00  9.000E+00
      -5     1     4     4     0   504  7.861957530E+00 -3.330863268E+01 -1.235504374E+00  3.457404169E+01  4.750000000E+00  0.00000E+00  9.000E+00
      21     1     1     2   512   502 -3.757335807E+01 -6.318522707E+01  1.961590502E+02  2.094815102E+02  2.697398305E-06  0.00000E+00  9.000E+00
</event>
<event>
     13  10001  1.00000E+00  1.43389E+01 -1.00000E+00  1.84410E-01
      21    -1     0     0   511   504  0.000000000E+00  0.000000000E+00  8.236557431E+02  8.236557431E+02  0.000000000E+00  0.00000E+00  9.000E+00
      21    -1     0     0   502   503  0.000000000E+00  0.000000000E+00 -8.445525289E+02  8.445525289E+02  0.000000000E+00  0.00000E+00  9.000E+00
       6     2     1     2   502     0  1.557484834E+02  1.134703520E+02  6.176696883E+02  6.695020200E+02  1.720000000E+02  0.00000E+00  9.000E+00
      -6     2     1     2     0   504 -1.692711013E+02 -1.087014641E+02 -7.969108313E+02  8.397139913E+02  1.720000000E+02  0.00000E+00  9.000E+00
      24     2     3     3     0     0  7.196951513E+01  5.206308849E+01  4.919248957E+02  5.063331414E+02  8.057897278E+01  0.00000E+00  9.000E+00
     -24     2     4     4     0     0 -7.246469387E+01 -1.265713602E+02 -5.038893035E+02  5.305619381E+02  7.949904954E+01  0.00000E+00  9.000E+00
     -11     1     5     5     0     0  3.830318374E+00  4.141042212E+01  9.866118660E+01  1.070678483E+02  1.348699152E-06  0.00000E+00  9.000E+00
      12     1     5     5     0     0  6.813919676E+01  1.065266637E+01  3.932637090E+02  3.992652931E+02  7.629394531E-06  0.00000E+00  9.000E+00
      13     1     6     6     0     0 -6.152226314E+01 -3.451793969E+01 -2.675049753E+02  2.766503006E+02  6.607249480E-06  0.00000E+00  9.000E+00
     -14     1     6     6     0     0 -1.094243073E+01 -9.205342055E+01 -2.363843282E+02  2.539116375E+02  6.031565972E-06  0.00000E+00  9.000E+00
       5     1     3     3   502     0  8.377896827E+01  6.140726354E+01  1.257447927E+02  1.631688785E+02  4.750000000E+00  0.00000E+00  9.000E+00
      -5     1     4     4     0   504 -9.680640745E+01  1.786989615E+01 -2.930215279E+02  3.091520532E+02  4.750000000E+00  0.00000E+00  9.000E+00
      21     1     1     2   511   503  1.352261791E+01 -4.768887950E+00  1.583443573E+02  1.589922607E+02  0.000000000E+00  0.00000E+00  9.000E+00
</event>
<event>
     13  10001  1.00000E+00  9.17249E+01 -1.00000E+00  1.27996E-01
      21    -1     0     0   502   503  0.000000000E+00  0.000000000E+00  3.770847395E+02  3.770847395E+02  0.000000000E+00  0.00000E+00  9.000E+00
      -3    -1     0     0     0   504  0.000000000E+00  0.000000000E+00 -2.893305023E+02  2.893305023E+02  0.000000000E+00  0.00000E+00  9.000E+00
       6     2     1     2   502     0 -1.511285047E+02 -2.040253497E+02 -4.648474708E+01  3.101789805E+02  1.720000000E+02  0.00000E+00  9.000E+00
      -6     2     1     2     0   504  9.193197675E+01  1.339594948E+02  1.124196318E+02  2.619519197E+02  1.720000000E+02  0.00000E+00  9.000E+00
      24     2     3     3     0     0 -3.979150930E+01 -4.782954609E+01 -6.031964928E+01  1.178068863E+02  7.980584369E+01  0.00000E+00  9.000E+00
     -24     2     4     4     0     0 -9.949503894E+00  1.933116107E+01  4.846465494E+01  9.572228163E+01  7.963194086E+01  0.00000E+00  9.000E+00
     -11     1     5     5     0     0 -3.538491869E+01  1.482674523E+01 -2.185351669E+01  4.415315432E+01  1.599360450E-06  0.00000E+00  9.000E+00
      12     1     5     5     0     0 -4.406590607E+00 -6.265629132E+01 -3.846613259E+01  7.365373201E+01  1.846782373E-06  0.00000E+00  9.000E+00
      13     1     6     6     0     0  2.020541571E+00  1.594538130E+01 -2.027108443E+01  2.586995626E+01  4.129530925E-07  0.00000E+00  9.000E+00
     -14     1     6     6     0     0 -1.197004546E+01  3.385779774E+00  6.873573937E+01  6.985232537E+01  9.536743164E-07  0.00000E+00  9.000E+00
       5     1     3     3   502     0 -1.113369954E+02 -1.561958036E+02  1.383490220E+01  1.923720942E+02  4.750000000E+00  0.00000E+00  9.000E+00
      -5     1     4     4     0   504  1.018814806E+02  1.146283338E+02  6.395497687E+01  1.662296380E+02  4.750000000E+00  0.00000E+00  9.000E+00
      -3     1     1     2     0   503  5.919652796E+01  7.006585483E+01  2.181935254E+01  9.428434165E+01  1.936921693E-06  0.00000E+00  9.000E+00
</event>
<event>
     13  10001  1.00000E+00  2.18633E+02 -1.00000E+00  1.12137E-01
       2    -1     0     0   503     0  0.000000000E+00  0.000000000E+00  7.861645459E+02  7.861645459E+02  0.000000000E+00  0.00000E+00  9.000E+00
      21    -1     0     0   502   503  0.000000000E+00  0.000000000E+00 -1.625185910E+02  1.625185910E+02  0.000000000E+00  0.00000E+00  9.000E+00
       6     2     1     2   502     0  9.325062528E+01  4.134924057E+01  4.531338072E+01  2.050432669E+02  1.720000000E+02  0.00000E+00  9.000E+00
      -6     2     1     2     0   504 -4.943173601E+01  1.728471370E+02  3.031725483E+02  3.921953892E+02  1.720000000E+02  0.00000E+00  9.000E+00
      24     2     3     3     0     0  1.074223316E+02  9.838934445E+00  8.304479147E+01  1.536627403E+02  7.127017890E+01  0.00000E+00  9.000E+00
     -24     2     4     4     0     0 -9.597446215E+01  1.496570883E+02  2.554622542E+02  3.214646436E+02  8.043762981E+01  0.00000E+00  9.000E+00
     -11     1     5     5     0     0  6.899344860E+01  3.123776007E+01  7.908403875E+01  1.094996748E+02  9.536743164E-07  0.00000E+00  9.000E+00
      12     1     5     5     0     0  3.842888302E+01 -2.139882562E+01  3.960752724E+00  4.416306545E+01  9.657056180E-07  0.00000E+00  9.000E+00
      13     1     6     6     0     0 -4.352973586E+01  1.199419330E+02  2.109315113E+02  2.465218198E+02  2.697398305E-06  0.00000E+00  9.000E+00
     -14     1     6     6     0     0 -5.244472630E+01  2.971515534E+01  4.453074295E+01  7.494282382E+01  1.348699152E-06  0.00000E+00  9.000E+00
       5     1     3     3   502     0 -1.417170634E+01  3.151030613E+01 -3.773141075E+01  5.138052657E+01  4.750000000E+00  0.00000E+00  9.000E+00
      -5     1     4     4     0   504  4.654272615E+01  2.319004868E+01  4.771029405E+01  7.073074560E+01  4.750000000E+00  0.00000E+00  9.000E+00
       2     1     1     2   504     0 -4.381888927E+01 -2.141963776E+02  2.751600259E+02  3.514444808E+02  3.814697266E-06  0.00000E+00  9.000E+00
</event>
<event>
     13  10001  1.00000E+00  2.72936E+01 -1.00000E+00  1.59803E-01
      -1    -1     0     0     0   511  0.000000000E+00  0.000000000E+00  1.919288072E+02  1.919288072E+02  0.000000000E+00  0.00000E+00  9.000E+00
       1    -1     0     0   502     0  0.000000000E+00  0.000000000E+00 -2.687007337E+02  2.687007337E+02  0.000000000E+00  0.00000E+00  9.000E+00
       6     2     1     2   502     0 -5.923573729E+01  4.121697403E+01 -1.279361790E+02  2.261843881E+02  1.720000000E+02  0.00000E+00  9.000E+00
      -6     2     1     2     0   512  3.256216713E+01 -3.543252961E+01  2.468516007E+00  1.786220940E+02  1.720000000E+02  0.00000E+00  9.000E+00
      24     2     3     3     0     0 -9.767877918E+01 -9.117686229E+00 -8.037102268E+01  1.468342017E+02  7.400341469E+01  0.00000E+00  9.000E+00
     -24     2     4     4     0     0  1.533615115E+01 -5.709151633E+01 -3.172073100E+01  1.343805474E+02  1.164357676E+02  0.00000E+00  9.000E+00
     -11     1     5     5     0     0 -6.123067434E+01  3.086147070E+01 -4.923892923E+01  8.441621885E+01  2.132480600E-06  0.00000E+00  9.000E+00
      12     1     5     5     0     0 -3.644810484E+01 -3.997915693E+01 -3.113209345E+01  6.241798280E+01  2.078484985E-06  0.00000E+00  9.000E+00
      13     1     6     6     0     0 -2.864502379E+01  1.536234456E+01  1.693328764E+01  3.665071962E+01  1.039242493E-06  0.00000E+00  9.000E+00
     -14     1     6     6     0     0  4.398117494E+01 -7.245386089E+01 -4.865401864E+01  9.772982778E+01  2.132480600E-06  0.00000E+00  9.000E+00
       5     1     3     3   502     0  3.844304188E+01  5.033466026E+01 -4.756515628E+01  7.935018642E+01  4.750000000E+00  0.00000E+00  9.000E+00
      -5     1     4     4     0   512  1.722601598E+01  2.165898672E+01  3.418924701E+01  4.424154658E+01  4.750000000E+00  0.00000E+00  9.000E+00
      21     1     1     2   512   511  2.667357016E+01 -5.784444423E+00  4.869573649E+01  5.582305881E+01  9.536743164E-07  0.00000E+00  9.000E+00
</event>
<event>
     13  10001  1.00000E+00  1.35434E+01 -1.00000E+00  1.86978E-01
      21    -1     0     0   513   504  0.000000000E+00  0.000000000E+00  6.617102703E+01  6.617102703E+01  0.000000000E+00  0.00000E+00  9.000E+00
      21    -1     0     0   502   503  0.000000000E+00  0.000000000E+00 -1.475879572E+03  1.475879572E+03  0.000000000E+00  0.00000E+00  9.000E+00
       6     2     1     2   502     0 -8.343657626E+01 -7.432791920E+01 -1.165470286E+03  1.183381295E+03  1.720000000E+02  0.00000E+00  9.000E+00
      -6     2     1     2     0   504  7.037135900E+01  7.789501590E+01 -2.655931249E+02  3.333818676E+02  1.720000000E+02  0.00000E+00  9.000E+00
      24     2     3     3     0     0 -5.683829938E+01 -9.621723414E+01 -5.612426586E+02  5.781539008E+02  8.234235117E+01  0.00000E+00  9.000E+00
     -24     2     4     4     0     0  1.774915546E+01  3.971210305E+01 -4.546735605E+01  1.038062859E+02  8.256137637E+01  0.00000E+00  9.000E+00
     -11     1     5     5     0     0 -7.099161330E+00 -8.506695123E+01 -2.962504151E+02  3.083035723E+02  0.000000000E+00  0.00000E+00  9.000E+00
      12     1     5     5     0     0 -4.973913805E+01 -1.115028292E+01 -2.649922435E+02  2.698503285E+02  6.607249480E-06  0.00000E+00  9.000E+00
      13     1     6     6     0     0  9.521590638E+00 -2.283522806E+01 -2.993586669E+01  3.883638041E+01  4.768371582E-07  0.00000E+00  9.000E+00
     -14     1     6     6     0     0  8.227564823E+00  6.254733111E+01 -1.553148936E+01  6.496990544E+01  2.665600750E-06  0.00000E+00  9.000E+00
       5     1     3     3   502     0 -2.659827688E+01  2.188931494E+01 -6.042276277E+02  6.052273944E+02  4.750000000E+00  0.00000E+00  9.000E+00
      -5     1     4     4     0   504  5.262220354E+01  3.818291285E+01 -2.201257688E+02  2.295755817E+02  4.750000000E+00  0.00000E+00  9.000E+00
      21     1     1     2   513   503  1.306521726E+01 -3.567096695E+00  2.135486656E+01  2.528743575E+01  1.545128989E-06  0.00000E+00  9.000E+00
</event>
<event>
     13  10001  1.00000E+00  4.15676E+01 -1.00000E+00  1.47069E-01
      21    -1     0     0   503   504  0.000000000E+00  0.000000000E+00  1.193518861E+03  1.193518861E+03  0.000000000E+00  0.00000E+00  9.000E+00
      21    -1     0     0   502   511  0.000000000E+00  0.000000000E+00 -1.291712453E+02  1.291712453E+02  0.000000000E+00  0.00000E+00  9.000E+00
       6     2     1     2   502     0 -5.636447284E+01 -1.678659167E+02  1.204862961E+02  2.746941341E+02  1.720000000E+02  0.00000E+00  9.000E+00
      -6     2     1     2     0   504  8.152304103E+01  2.009553841E+02  9.631773968E+02  1.002159553E+03  1.720000000E+02  0.00000E+00  9.000E+00
      24     2     3     3     0     0 -7.954340624E+01 -7.736631276E+01  2.156749914E+01  1.385510765E+02  8.011581580E+01  0.00000E+00  9.000E+00
     -24     2     4     4     0     0  8.298702112E+01  5.352384641E+01  5.089851383E+02  5.246123077E+02  8.000346654E+01  0.00000E+00  9.000E+00
     -11     1     5     5     0     0 -1.882546172E+01  1.536685030E+01  1.252834159E+01  2.734039941E+01  8.085167388E-07  0.00000E+00  9.000E+00
      12     1     5     5     0     0 -6.071794452E+01 -9.273316307E+01  9.039157548E+00  1.112106770E+02  2.255545608E-06  0.00000E+00  9.000E+00
      13     1     6     6     0     0  4.817655483E+01  6.845580188E+01  4.135148027E+02  4.219024405E+02  7.629394531E-06  0.00000E+00  9.000E+00
     -14     1     6     6     0     0  3.481046629E+01 -1.493195547E+01  9.547033552E+01  1.027098672E+02  1.907348633E-06  0.00000E+00  9.000E+00
       5     1     3     3   502     0  2.317893340E+01 -9.049960392E+01  9.891879696E+01  1.361430577E+02  4.750000000E+00  0.00000E+00  9.000E+00
      -5     1     4     4     0   504 -1.463980092E+00  1.474315377E+02  4.541922585E+02  4.775472456E+02  4.750000000E+00  0.00000E+00  9.000E+00
      21     1     1     2   503   511 -2.515856818E+01 -3.308946744E+01 -1.931607755E+01  4.583641849E+01  8.920806376E-07  0.00000E+00  9.000E+00
</event>
<event>
     13  10001  1.00000E+00  9.53668E+00 -1.00000E+00  2.04551E-01
      21    -1     0     0   512   504  0.000000000E+00  0.000000000E+00  4.182664901E+02  4.182664901E+02  0.000000000E+00  0.00000E+00  9.000E+00
      21    -1     0     0   502   503  0.000000000E+00  0.000000000E+00 -2.052674387E+02  2.052674387E+02  0.000000000E+00  0.00000E+00  9.000E+00
       6     2     1     2   502     0  6.540126657E+00  1.049890792E+02 -1.154102035E+02  2.323122792E+02  1.720000000E+02  0.00000E+00  9.000E+00
      -6     2     1     2     0   504  2.994496893E+00 -1.047909998E+02  3.008273969E+02  3.620376270E+02  1.720000000E+02  0.00000E+00  9.000E+00
      24     2     3     3     0     0  4.545667481E+01  9.743626802E+01 -3.078597328E+01  1.387421690E+02  8.210650220E+01  0.00000E+00  9.000E+00
     -24     2     4     4     0     0  2.171917683E+01 -1.385263510E+02  2.531131576E+02  3.004917199E+02  8.104153634E+01  0.00000E+00  9.000E+00
     -11     1     5     5     0     0  1.962603610E+01  4.319570508E+01 -5.616666321E+01  7.352376682E+01  1.168007728E-06  0.00000E+00  9.000E+00
      12     1     5     5     0     0  2.583063871E+01  5.424056293E+01  2.538068994E+01  6.521840220E+01  3.371747881E-07  0.00000E+00  9.000E+00
      13     1     6     6     0     0  4.210608706E+01 -4.746881835E+01  1.410531532E+02  1.546680423E+02  2.697398305E-06  0.00000E+00  9.000E+00
     -14     1     6     6     0     0 -2.038691023E+01 -9.105753261E+01  1.120600044E+02  1.458236775E+02  2.697398305E-06  0.00000E+00  9.000E+00
       5     1     3     3   502     0 -3.891654816E+01  7.552811137E+00 -8.462423027E+01  9.357011021E+01  4.750000000E+00  0.00000E+00  9.000E+00
      -5     1     4     4     0   504 -1.872467994E+01  3.373535113E+01  4.771423928E+01  6.154590714E+01  4.750000000E+00  0.00000E+00  9.000E+00
      21     1     1     2   512   503 -9.534623549E+00 -1.980793210E-01  2.758185804E+01  2.918402259E+01  3.371747881E-07  0.00000E+00  9.000E+00
</event>
<event>
     13  10001  1.00000E+00  1.35758E+02 -1.00000E+00  1.20304E-01
      21    -1     0     0   502   503  0.000000000E+00  0.000000000E+00  1.191823359E+02  1.191823359E+02  0.000000000E+00  0.00000E+00  9.000E+00
      21    -1     0     0   511   504  0.000000000E+00  0.000000000E+00 -8.215892179E+02  8.215892179E+02  0.000000000E+00  0.00000E+00  9.000E+00
       6     2     1     2   502     0  6.528048890E+01 -9.534871558E+01 -1.358549091E+02  2.477770694E+02  1.720000000E+02  0.00000E+00  9.000E+00
      -6     2     1     2     0   504  3.595454354E+01  1.858016593E+02 -3.026998296E+02  3.962652807E+02  1.720000000E+02  0.00000E+00  9.000E+00
      24     2     3     3     0     0  3.632641747E+01 -1.245077974E+02 -1.386817519E+02  2.063145098E+02  8.069230696E+01  0.00000E+00  9.000E+00
     -24     2     4     4     0     0 -2.640553063E+01  1.414260031E+02 -2.689081890E+02  3.124654287E+02  6.800340890E+01  0.00000E+00  9.000E+00
     -11     1     5     5     0     0  5.218208810E+01 -4.864411117E+01 -4.344279972E+01  8.352542557E+01  1.651812370E-06  0.00000E+00  9.000E+00
      12     1     5     5     0     0 -1.585567063E+01 -7.586368627E+01 -9.523895221E+01  1.227890842E+02  3.568322551E-06  0.00000E+00  9.000E+00
      13     1     6     6     0     0  1.572682613E+01  7.322389018E+01 -1.652102304E+02  1.813931955E+02  1.907348633E-06  0.00000E+00  9.000E+00
     -14     1     6     6     0     0 -4.213235675E+01  6.820211288E+01 -1.036979586E+02  1.310722331E+02  3.568322551E-06  0.00000E+00  9.000E+00
       5     1     3     3   502     0  2.895407143E+01  2.915908186E+01  2.826842872E+00  4.146255959E+01  4.750000000E+00  0.00000E+00  9.000E+00
      -5     1     4     4     0   504  6.236007416E+01  4.437565625E+01 -3.379164065E+01  8.379985200E+01  4.750000000E+00  0.00000E+00  9.000E+00
      21     1     1     2   511   503 -1.012350324E+02 -9.045294372E+01 -2.638521433E+02  2.967292038E+02  5.394796609E-06  0.00000E+00  9.000E+00
</event>
<event>
     13  10001  1.00000E+00  2.76019E+02 -1.00000E+00  1.08541E-01
      21    -1     0     0   503   504  0.000000000E+00  0.000000000E+00  7.044819733E+02  7.044819733E+02  0.000000000E+00  0.00000E+00  9.000E+00
      21    -1     0     0   502   512  0.000000000E+00  0.000000000E+00 -3.590423988E+02  3.590423988E+02  0.000000000E+00  0.00000E+00  9.000E+00
       6     2     1     2   502     0  4.782807995E+01  3.121225790E+02  3.545035951E+02  5.049404207E+02  1.720000000E+02  0.00000E+00  9.000E+00
      -6     2     1     2     0   504 -7.488075454E+01 -3.743203854E+01  1.472266702E+02  2.413876081E+02  1.720000000E+02  0.00000E+00  9.000E+00
      24     2     3     3     0     0  4.090283507E+01  6.372721419E+01  8.622132735E+01  1.392272080E+02  7.884096914E+01  0.00000E+00  9.000E+00
     -24     2     4     4     0     0 -1.434469491E+01 -7.076704072E+01  1.217113665E+02  1.675673527E+02  8.972968638E+01  0.00000E+00  9.000E+00
     -11     1     5     5     0     0 -1.426635150E+01  1.635413955E+01 -5.294184224E+00  2.233864481E+01  8.344650269E-07  0.00000E+00  9.000E+00
      12     1     5     5     0     0  5.516918657E+01  4.737307464E+01  9.151551157E+01  1.168885632E+02  1.907348633E-06  0.00000E+00  9.000E+00
      13     1     6     6     0     0  2.310210907E+01 -7.391665765E+01  7.784449158E+01  1.098050299E+02  2.697398305E-06  0.00000E+00  9.000E+00
     -14     1     6     6     0     0 -3.744680399E+01  3.149616924E+00  4.386687493E+01  5.776232277E+01  1.168007728E-06  0.00000E+00  9.000E+00
       5     1     3     3   502     0  6.925244883E+00  2.483953648E+02  2.682822677E+02  3.657132127E+02  4.750000000E+00  0.00000E+00  9.000E+00
      -5     1     4     4     0   504 -6.053605963E+01  3.333500219E+01  2.551530373E+01  7.382025542E+01  4.750000000E+00  0.00000E+00  9.000E+00
      21     1     1     2   503   512  2.705267459E+01 -2.746905404E+02 -1.562906908E+02  3.171963434E+02  9.536743164E-06  0.00000E+00  9.000E+00
</event>
<event>
     13  10001  1.00000E+00  6.98827E+01 -1.00000E+00  1.33952E-01
       2    -1     0     0   503     0  0.000000000E+00  0.000000000E+00  1.338343662E+03  1.338343662E+03  0.000000000E+00  0.00000E+00  9.000E+00
      21    -1     0     0   502   503  0.000000000E+00  0.000000000E+00 -3.032597008E+02  3.032597008E+02  0.000000000E+00  0.00000E+00  9.000E+00
       6     2     1     2   502     0  7.282999405E+01  2.394883388E+01 -2.281340185E+02  2.958156268E+02  1.720000000E+02  0.00000E+00  9.000E+00
      -6     2     1     2     0   504 -4.587882665E+00 -3.900218306E+01  1.534534633E+02  2.338251149E+02  1.720000000E+02  0.00000E+00  9.000E+00
      24     2     3     3     0     0  1.693178082E+01  5.479882774E+01 -5.887743744E+01  1.148551751E+02  8.022195386E+01  0.00000E+00  9.000E+00
     -24     2     4     4     0     0  4.793024307E+01 -1.026369781E+01  3.833383836E+01  1.039823461E+02  8.330782340E+01  0.00000E+00  9.000E+00
     -11     1     5     5     0     0 -3.278371956E+00 -6.930594589E-01 -5.560617888E+01  5.570704788E+01  9.536743164E-07  0.00000E+00  9.000E+00
      12     1     5     5     0     0  2.021015277E+01  5.549188720E+01 -3.271258567E+00  5.914812721E+01  5.280984982E-07  0.00000E+00  9.000E+00
      13     1     6     6     0     0 -3.227992052E-01  1.056187635E+01 -2.173532236E+01  2.416778164E+01  4.129530925E-07  0.00000E+00  9.000E+00
     -14     1     6     6     0     0  4.825304228E+01 -2.082557416E+01  6.006916071E+01  7.981456444E+01  6.743495762E-07  0.00000E+00  9.000E+00
       5     1     3     3   502     0  5.589821323E+01 -3.084999386E+01 -1.692565810E+02  1.809604517E+02  4.750000000E+00  0.00000E+00  9.000E+00
      -5     1     4     4     0   504 -5.251812574E+01 -2.873848525E+01  1.151196249E+02  1.298427688E+02  4.750000000E+00  0.00000E+00  9.000E+00
       2     1     1     2   504     0 -6.824211139E+01  1.505334918E+01  1.109764516E+03  1.111962621E+03  1.525878906E-05  0.00000E+00  9.000E+00
</event>
<event>
     13  10001  1.00000E+00  2.34901E+01 -1.00000E+00  1.64915E-01
      21    -1     0     0   511   503  0.000000000E+00  0.000000000E+00  4.179695656E+02  4.179695656E+02  0.000000000E+00  0.00000E+00  9.000E+00
      21    -1     0     0   503   504  0.000000000E+00  0.000000000E+00 -3.693385014E+02  3.693385014E+02  0.000000000E+00  0.00000E+00  9.000E+00
       6     2     1     2   502     0  8.163785912E+01 -9.411548103E+00  3.259983875E+02  3.776403923E+02  1.720000000E+02  0.00000E+00  9.000E+00
      -6     2     1     2     0   504 -7.085531743E+01 -1.145761221E+01 -3.145894548E+02  3.656532209E+02  1.720000000E+02  0.00000E+00  9.000E+00
      24     2     3     3     0     0  4.379519584E+01 -6.737387238E+01  1.598684592E+02  1.976031357E+02  8.385593086E+01  0.00000E+00  9.000E+00
     -24     2     4     4     0     0 -9.089250933E+00  1.778008004E+01 -6.134069189E+01  1.033034772E+02  8.068570001E+01  0.00000E+00  9.000E+00
     -11     1     5     5     0     0 -2.673700805E+00 -6.508541878E+01  1.190682853E+02  1.357222052E+02  3.015782986E-06  0.00000E+00  9.000E+00
      12     1     5     5     0     0  4.646889664E+01 -2.288453593E+00  4.080017394E+01  6.188093057E+01  4.768371582E-07  0.00000E+00  9.000E+00
      13     1     6     6     0     0 -4.492776086E+01  1.049555671E+01 -3.928002874E+01  6.059357279E+01  1.066240300E-06  0.00000E+00  9.000E+00
     -14     1     6     6     0     0  3.583850992E+01  7.284523330E+00 -2.206066316E+01  4.270990439E+01  3.371747881E-07  0.00000E+00  9.000E+00
       5     1     3     3   502     0  3.784266328E+01  5.796232427E+01  1.661299283E+02  1.800372566E+02  4.750000000E+00  0.00000E+00  9.000E+00
      -5     1     4     4     0   504 -6.176606650E+01 -2.923769226E+01 -2.532487629E+02  2.623497437E+02  4.750000000E+00  0.00000E+00  9.000E+00
      21     1     1     2   511   502 -1.078254168E+01  2.086916031E+01  3.722213161E+01  4.401445375E+01  0.000000000E+00  0.00000E+00  9.000E+00
</event>
<event>
     13  10001  1.00000E+00  6.32086E+01 -1.00000E+00  1.36296E-01
       1    -1     0     0   502     0  0.000000000E+00  0.000000000E+00  1.874897712E+02  1.874897712E+02  0.000000000E+00  0.00000E+00  9.000E+00
      -1    -1     0     0     0   513  0.000000000E+00  0.000000000E+00 -2.981078977E+02  2.981078977E+02  0.000000000E+00  0.00000E+00  9.000E+00
       6     2     1     2   502     0  2.815626790E+01 -3.593456655E+01 -1.132440265E+02  2.109319275E+02  1.720000000E+02  0.00000E+00  9.000E+00
      -6     2     1     2     0   512 -4.470366844E+01  9.693872874E+01  3.203043310E+01  2.049523939E+02  1.720000000E+02  0.00000E+00  9.000E+00
      24     2     3     3     0     0 -9.268390989E-01 -8.328045274E+01 -6.948215998E+01  1.400438219E+02  8.858898722E+01  0.00000E+00  9.000E+00
     -24     2     4     4     0     0 -8.165171173E+01  1.020757694E+02 -3.195933477E+00  1.534256387E+02  8.026672972E+01  0.00000E+00  9.000E+00
     -11     1     5     5     0     0 -1.136345368E+01 -2.674005541E+01 -7.677392625E+01  8.208772377E+01  1.907348633E-06  0.00000E+00  9.000E+00
      12     1     5     5     0     0  1.043661458E+01 -5.654039734E+01  7.291766268E+00  5.795609813E+01  1.140303997E-06  0.00000E+00  9.000E+00
      13     1     6     6     0     0 -2.138028983E+01  7.164370546E+01 -3.029684389E+01  8.067116012E+01  1.936921693E-06  0.00000E+00  9.000E+00
     -14     1     6     6     0     0 -6.027142190E+01  3.043206397E+01  2.710091041E+01  7.275447863E+01  3.371747881E-07  0.00000E+00  9.000E+00
       5     1     3     3   502     0  2.908310700E+01  4.734588620E+01 -4.376186652E+01  7.088810558E+01  4.750000000E+00  0.00000E+00  9.000E+00
      -5     1     4     4     0   512  3.694804329E+01 -5.137040687E+00  3.522636658E+01  5.152675511E+01  4.750000000E+00  0.00000E+00  9.000E+00
      21     1     1     2   512   513  1.654740054E+01 -6.100416220E+01 -2.940453310E+01  6.971334762E+01  1.348699152E-06  0.00000E+00  9.000E+00
</event>
<event>
     13  10001  1.00000E+00  1.19050E+02 -1.00000E+00  1.22773E-01
      21    -1     0     0   502   503  0.000000000E+00  0.000000000E+00  1.694360197E+02  1.694360197E+02  0.000000000E+00  0.00000E+00  9.000E+00
       2    -1     0     0   503     0  0.000000000E+00  0.000000000E+00 -6.234173640E+02  6.234173640E+02  0.000000000E+00  0.00000E+00  9.000E+00
       6     2     1     2   502     0  5.649895048E+01 -6.733599027E+01 -1.370031391E+01  1.936439144E+02  1.720000000E+02  0.00000E+00  9.000E+00
      -6     2     1     2     0   504 -5.905413070E+00 -4.042806019E+01 -3.953298938E+01  1.811523094E+02  1.720000000E+02  0.00000E+00  9.000E+00
      24     2     3     3     0     0  9.063587579E+01 -1.835553289E+01  2.781447339E+01  1.207710461E+02  7.252732642E+01  0.00000E+00  9.000E+00
     -24     2     4     4     0     0 -3.520881982E+01 -8.100396578E+01 -4.800037810E+01  1.301684597E+02  8.269515182E+01  0.00000E+00  9.000E+00
     -11     1     5     5     0     0  5.845294651E+01  2.414756253E+01  2.277672075E+01  6.722076123E+01  1.507891493E-06  0.00000E+00  9.000E+00
      12     1     5     5     0     0  3.218292928E+01 -4.250309542E+01  5.037752634E+00  5.355028486E+01  5.717076687E-07  0.00000E+00  9.000E+00
      13     1     6     6     0     0  5.766971348E+00 -2.584000151E+01 -5.505467674E+01  6.108994244E+01  6.743495762E-07  0.00000E+00  9.000E+00
     -14     1     6     6     0     0 -4.097579117E+01 -5.516396426E+01  7.054298639E+00  6.907851724E+01  8.471411707E-07  0.00000E+00  9.000E+00
       5     1     3     3   502     0 -3.413692530E+01 -4.898045738E+01 -4.151478730E+01  7.287286833E+01  4.750000000E+00  0.00000E+00  9.000E+00
      -5     1     4     4     0   504  2.930340675E+01  4.057590558E+01  8.467388715E+00  5.098384972E+01  4.750000000E+00  0.00000E+00  9.000E+00
       2     1     1     2   504     0 -5.059353741E+01  1.077640505E+02 -4.007480410E+02  4.180571599E+02  0.000000000E+00  0.00000E+00  9.000E+00
</event>
<event>
     13  10001  1.00000E+00  1.98238E+00 -1.00000E+00  3.88976E-01
      21    -1     0     0   511   503  0.000000000E+00  0.000000000E+00  2.273625498E+02  2.273625498E+02  0.000000000E+00  0.00000E+00  9.000E+00
      21    -1     0     0   503   504  0.000000000E+00  0.000000000E+00 -1.459904575E+02  1.459904575E+02  0.000000000E+00  0.00000E+00  9.000E+00
       6     2     1     2   502     0  5.617654677E+00 -3.778352727E+01  8.098379514E+01  1.939111344E+02  1.720000000E+02  0.00000E+00  9.000E+00
      -6     2     1     2     0   504 -6.993370188E+00  3.635620456E+01 -2.477951621E+00  1.759568728E+02  1.720000000E+02  0.00000E+00  9.000E+00
      24     2     3     3     0     0  3.047622095E+01  3.608839572E+01  5.497846456E+01  1.116077381E+02  8.486744544E+01  0.00000E+00  9.000E+00
     -24     2     4     4     0     0 -7.325593084E+00  8.001164864E+01 -3.815787766E+01  1.193748280E+02  7.961656675E+01  0.00000E+00  9.000E+00
     -11     1     5     5     0     0  5.892440194E+00  1.478546525E+01 -2.250975235E+01  2.756845634E+01  8.920806376E-07  0.00000E+00  9.000E+00
      12     1     5     5     0     0  2.458378075E+01  2.130293047E+01  7.748821691E+01  8.403928179E+01  9.536743164E-07  0.00000E+00  9.000E+00
      13     1     6     6     0     0  2.414582803E+01 -2.812557593E+00 -1.118009557E+01  2.675679406E+01  5.960464478E-07  0.00000E+00  9.000E+00
     -14     1     6     6     0     0 -3.147142112E+01  8.282420623E+01 -2.697778209E+01  9.261803394E+01  1.118282261E-06  0.00000E+00  9.000E+00
       5     1     3     3   502     0 -2.485856627E+01 -7.387192298E+01  2.600533058E+01  8.230339629E+01  4.750000000E+00  0.00000E+00  9.000E+00
      -5     1     4     4     0   504  3.322228953E-01 -4.365544408E+01  3.567992604E+01  5.658204478E+01  4.750000000E+00  0.00000E+00  9.000E+00
      21     1     1     2   511   502  1.375715512E+00  1.427322710E+00  2.866248766E+00  3.485000040E+00  5.960464478E-08  0.00000E+00  9.000E+00
</event>
<event>
     13  10001  1.00000E+00  4.28719E+00 -1.00000E+00  2.67617E-01
       1    -1     0     0   513     0  0.000000000E+00  0.000000000E+00  2.935574484E+02  2.935574484E+02  0.000000000E+00  0.00000E+00  9.000E+00
      -1    -1     0     0     0   512  0.000000000E+00  0.000000000E+00 -1.188238597E+02  1.188238597E+02  0.000000000E+00  0.00000E+00  9.000E+00
       6     2     1     2   502     0 -5.431585889E+01 -3.279392988E+01  7.722485762E+01  1.989304728E+02  1.720000000E+02  0.00000E+00  9.000E+00
      -6     2     1     2     0   512  5.385042705E+01  3.705578398E+01  9.006938713E+01  2.048645751E+02  1.720000000E+02  0.00000E+00  9.000E+00
      24     2     3     3     0     0 -8.337443746E+01 -5.992848133E+01  2.492139493E+01  1.330601488E+02  8.087773230E+01  0.00000E+00  9.000E+00
     -24     2     4     4     0     0 -1.368193881E+01 -1.284912541E+01  8.554527464E+01  1.206377948E+02  8.296498087E+01  0.00000E+00  9.000E+00
     -11     1     5     5     0     0 -1.956027246E+00  1.242888318E+01  2.049115679E+01  2.404559598E+01  1.143415337E-06  0.00000E+00  9.000E+00
      12     1     5     5     0     0 -8.141841021E+01 -7.235736450E+01  4.430238148E+00  1.090145528E+02  1.698470932E-06  0.00000E+00  9.000E+00
      13     1     6     6     0     0 -4.794293645E+01 -1.049891630E+01  3.842731468E+01  6.233306436E+01  1.581489940E-06  0.00000E+00  9.000E+00
     -14     1     6     6     0     0  3.426099764E+01 -2.350209103E+00  4.711795996E+01  5.830473045E+01  0.000000000E+00  0.00000E+00  9.000E+00
       5     1     3     3   502     0  2.905857856E+01  2.713455144E+01  5.230346268E+01  6.587032396E+01  4.750000000E+00  0.00000E+00  9.000E+00
      -5     1     4     4     0   512  6.753236586E+01  4.990490938E+01  4.524112490E+00  8.422678026E+01  4.750000000E+00  0.00000E+00  9.000E+00
      21     1     1     2   513   502  4.654318449E-01 -4.261854092E+00  7.439343917E+00  8.586260247E+00  1.192092896E-07  0.00000E+00  9.000E+00
</event>
<event>
     13  10001  1.00000E+00  6.02035E+02 -1.00000E+00  9.80467E-02
      21    -1     0     0   502   503  0.000000000E+00  0.000000000E+00  9.950896127E+02  9.950896127E+02  0.000000000E+00  0.00000E+00  9.000E+00
       4    -1     0     0   503     0  0.000000000E+00  0.000000000E+00 -5.668738293E+02  5.668738293E+02  0.000000000E+00  0.00000E+00  9.000E+00
       6     2     1     2   502     0 -3.085588600E+02  6.013487611E+01 -3.019302704E+01  3.596114463E+02  1.720000000E+02  0.00000E+00  9.000E+00
      -6     2     1     2     0   504 -2.919842534E+02 -1.778136883E+01  4.939328275E+02  5.992700722E+02  1.720000000E+02  0.00000E+00  9.000E+00
      24     2     3     3     0     0 -2.299200469E+02 -1.267093592E+01 -5.304555979E+01  2.499321413E+02  8.141537476E+01  0.00000E+00  9.000E+00
     -24     2     4     4     0     0 -2.121665361E+02  4.254679757E+00  2.214600198E+02  3.144535542E+02  6.930913410E+01  0.00000E+00  9.000E+00
     -11     1     5     5     0     0 -3.862241844E+01 -3.348401742E+01 -3.535466872E+00  5.123836604E+01  9.620197053E-07  0.00000E+00  9.000E+00
      12     1     5     5     0     0 -1.912976285E+02  2.081308150E+01 -4.951009292E+01  1.986937753E+02  3.303624740E-06  0.00000E+00  9.000E+00
      13     1     6     6     0     0  4.462787067E+00  1.552495636E+00  1.111294402E-01  4.726421570E+00  1.994118007E-07  0.00000E+00  9.000E+00
     -14     1     6     6     0     0 -2.166293232E+02  2.702184121E+00  2.213488903E+02  3.097271326E+02  2.697398305E-06  0.00000E+00  9.000E+00
       5     1     3     3   502     0 -7.863881312E+01  7.280581204E+01  2.285253275E+01  1.096793050E+02  4.750000000E+00  0.00000E+00  9.000E+00
      -5     1     4     4     0   504 -7.981771729E+01 -2.203604859E+01  2.724728078E+02  2.848165180E+02  4.750000000E+00  0.00000E+00  9.000E+00
       4     1     1     2   504     0  6.005431134E+02 -4.235350728E+01 -3.552401717E+01  6.030819235E+02  1.348699152E-06  0.00000E+00  9.000E+00
</event>
<event>
     13  10001  1.00000E+00  6.51999E+00 -1.00000E+00  2.27981E-01
      21    -1     0     0   502   511  0.000000000E+00  0.000000000E+00  2.544817088E+02  2.544817088E+02  0.000000000E+00  0.00000E+00  9.000E+00
      -2    -1     0     0     0   512  0.000000000E+00  0.000000000E+00 -7.563355433E+02  7.563355433E+02  0.000000000E+00  0.00000E+00  9.000E+00
       6     2     1     2   502     0  1.546209547E+02 -9.636680470E+01 -4.169219235E+02  4.864176096E+02  1.720000000E+02  0.00000E+00  9.000E+00
      -6     2     1     2     0   512 -1.606674857E+02  9.392760454E+01 -2.518936922E+02  3.573106044E+02  1.720000000E+02  0.00000E+00  9.000E+00
      24     2     3     3     0     0  4.428585785E+01  1.563018740E+01 -1.591760590E+02  1.844695131E+02  8.053846003E+01  0.00000E+00  9.000E+00
     -24     2     4     4     0     0 -1.779587870E+02  1.125793557E+02 -2.123874466E+02  3.100857925E+02  8.186165176E+01  0.00000E+00  9.000E+00
     -11     1     5     5     0     0  5.415275818E+01 -1.187137378E+01 -1.369905635E+02  1.477831696E+02  2.697398305E-06  0.00000E+00  9.000E+00
      12     1     5     5     0     0 -9.866900326E+00  2.750156118E+01 -2.218549555E+01  3.668634353E+01  9.233911863E-07  0.00000E+00  9.000E+00
      13     1     6     6     0     0  5.493807787E+00  3.232882667E-01  2.512013343E+00  6.049516537E+00  7.408739862E-07  0.00000E+00  9.000E+00
     -14     1     6     6     0     0 -1.834525948E+02  1.122560674E+02 -2.148994600E+02  3.040362760E+02  0.000000000E+00  0.00000E+00  9.000E+00
       5     1     3     3   502     0  1.103350969E+02 -1.119969921E+02 -2.577458645E+02  3.019480965E+02  4.750000000E+00  0.00000E+00  9.000E+00
      -5     1     4     4     0   512  1.729130127E+01 -1.865175117E+01 -3.950624558E+01  4.722481192E+01  4.750000000E+00  0.00000E+00  9.000E+00
      -2     1     1     2     0   511  6.046530982E+00  2.439200154E+00  1.669617812E+02  1.670890380E+02  3.303624740E-06  0.00000E+00  9.000E+00
</event>
<event>
     13  10001  1.00000E+00  3.09817E+02 -1.00000E+00  1.06844E-01
      21    -1     0     0   503   504  0.000000000E+00  0.000000000E+00  2.181098638E+02  2.181098638E+02  0.000000000E+00  0.00000E+00  9.000E+00
      21    -1     0     0   502   512  0.000000000E+00  0.000000000E+00 -7.249446385E+02  7.249446385E+02  0.000000000E+00  0.00000E+00  9.000E+00
       6     2     1     2   502     0  1.674614550E+02 -5.753240242E+01 -9.658841831E+01  2.650785521E+02  1.720000000E+02  0.00000E+00  9.000E+00
      -6     2     1     2     0   504  7.979759358E+01 -1.291481315E+02 -1.596576977E+02  2.795021936E+02  1.720000000E+02  0.00000E+00  9.000E+00
      24     2     3     3     0     0  1.237531510E+02 -2.687447415E+01 -3.030451329E-01  1.548798226E+02  8.916606902E+01  0.00000E+00  9.000E+00
     -24     2     4     4     0     0  8.730416723E+00 -1.785536306E+00 -4.037226212E+01  9.102579745E+01  8.109480832E+01  0.00000E+00  9.000E+00
     -11     1     5     5     0     0 -4.688876342E+00  1.578494536E+01  9.800125879E+00  1.916226836E+01  4.460403188E-07  0.00000E+00  9.000E+00
      12     1     5     5     0     0  1.284420273E+02 -4.265941951E+01 -1.010317101E+01  1.357175542E+02  3.303624740E-06  0.00000E+00  9.000E+00
      13     1     6     6     0     0  1.629383715E+01  3.069597901E+01 -4.553141438E+01  5.727863434E+01  0.000000000E+00  0.00000E+00  9.000E+00
     -14     1     6     6     0     0 -7.563420423E+00 -3.248151532E+01  5.159152263E+00  3.374716311E+01  6.194296387E-07  0.00000E+00  9.000E+00
       5     1     3     3   502     0  4.370830403E+01 -3.065792827E+01 -9.628537318E+01  1.101987296E+02  4.750000000E+00  0.00000E+00  9.000E+00
      -5     1     4     4     0   504  7.106717686E+01 -1.273625952E+02 -1.192854356E+02  1.884763962E+02  4.750000000E+00  0.00000E+00  9.000E+00
      21     1     1     2   503   512 -2.472590486E+02  1.866805339E+02 -2.505886586E+02  3.984737566E+02  6.607249480E-06  0.00000E+00  9.000E+00
</event>
<event>
     13  10001  1.00000E+00  4.43373E+01 -1.00000E+00  1.45298E-01
      21    -1     0     0   503   504  0.000000000E+00  0.000000000E+00  3.142937199E+01  3.142937199E+01  0.000000000E+00  0.00000E+00  9.000E+00
      21    -1     0     0   511   503  0.000000000E+00  0.000000000E+00 -1.959138040E+03  1.959138040E+03  0.000000000E+00  0.00000E+00  9.000E+00
       6     2     1     2   502     0  9.205778599E+01 -3.977775532E+01 -6.910091809E+02  7.191207089E+02  1.720000000E+02  0.00000E+00  9.000E+00
      -6     2     1     2     0   504 -4.779933708E+01  3.713452452E+01 -4.802680821E+02  5.137170235E+02  1.720000000E+02  0.00000E+00  9.000E+00
      24     2     3     3     0     0  1.284023031E+02 -2.579026209E+01 -4.701475019E+02  4.948017002E+02  8.147244868E+01  0.00000E+00  9.000E+00
     -24     2     4     4     0     0 -3.315613404E+00 -2.090305642E+01 -3.833305419E+02  3.921990755E+02  8.018652906E+01  0.00000E+00  9.000E+00
     -11     1     5     5     0     0  1.130947296E+01  2.387195696E+01 -6.513277410E+01  7.028550896E+01  0.000000000E+00  0.00000E+00  9.000E+00
      12     1     5     5     0     0  1.170928301E+02 -4.966221905E+01 -4.050147278E+02  4.245161912E+02  9.344061824E-06  0.00000E+00  9.000E+00
      13     1     6     6     0     0 -2.034594652E+01  2.244908495E+01 -2.289304343E+02  2.309265310E+02  2.697398305E-06  0.00000E+00  9.000E+00
     -14     1     6     6     0     0  1.703033312E+01 -4.335214136E+01 -1.544001076E+02  1.612725445E+02  3.303624740E-06  0.00000E+00  9.000E+00
       5     1     3     3   502     0 -3.634451712E+01 -1.398749323E+01 -2.208616790E+02  2.243190087E+02  4.750000000E+00  0.00000E+00  9.000E+00
      -5     1     4     4     0   504 -4.448372367E+01  5.803758094E+01 -9.693754022E+01  1.215179480E+02  4.750000000E+00  0.00000E+00  9.000E+00
      21     1     1     2   511   502 -4.425844891E+01  2.643230797E+00 -7.564314052E+02  7.577296799E+02  1.525878906E-05  0.00000E+00  9.000E+00
</event>
<event>
     13  10001  1.00000E+00  1.74988E+02 -1.00000E+00  1.15808E-01
      21    -1     0     0   502   512  0.000000000E+00  0.000000000E+00  6.044518796E+02  6.044518796E+02  0.000000000E+00  0.00000E+00  9.000E+00
      21    -1     0     0   503   504  0.000000000E+00  0.000000000E+00 -3.000687817E+02  3.000687817E+02  0.000000000E+00  0.00000E+00  9.000E+00
       6     2     1     2   502     0  4.022779342E+01 -1.291024657E+01 -8.490422113E+01  1.964120073E+02  1.720000000E+02  0.00000E+00  9.000E+00
      -6     2     1     2     0   504  1.242527010E+02  7.263439737E+01 -5.472929318E+01  2.308544670E+02  1.720000000E+02  0.00000E+00  9.000E+00
      24     2     3     3     0     0 -2.359232738E+01  3.355030438E+01 -7.400319282E+01  1.165810262E+02  8.020250804E+01  0.00000E+00  9.000E+00
     -24     2     4     4     0     0  5.155453118E+01 -7.108974430E+00 -7.465005006E+01  1.210208278E+02  7.978097255E+01  0.00000E+00  9.000E+00
     -11     1     5     5     0     0 -2.528129592E+01  3.912433093E+00 -8.194969265E+01  8.584988749E+01  1.651812370E-06  0.00000E+00  9.000E+00
      12     1     5     5     0     0  1.688968548E+00  2.963787129E+01  7.946499833E+00  3.073113875E+01  3.153981341E-07  0.00000E+00  9.000E+00
      13     1     6     6     0     0  5.351660472E+01  1.826316541E+01 -1.870589807E+01  5.956073216E+01  7.907449699E-07  0.00000E+00  9.000E+00
     -14     1     6     6     0     0 -1.962073545E+00 -2.537213984E+01 -5.594415199E+01  6.146009563E+01  9.536743164E-07  0.00000E+00  9.000E+00
       5     1     3     3   502     0  6.382012079E+01 -4.646055095E+01 -1.090102832E+01  7.983098102E+01  4.750000000E+00  0.00000E+00  9.000E+00
      -5     1     4     4     0   504  7.269816982E+01  7.974337180E+01  1.992075689E+01  1.098336392E+02  4.750000000E+00  0.00000E+00  9.000E+00
      21     1     1     2   503   512 -1.644804944E+02 -5.972415080E+01  4.440166122E+02  4.772541871E+02  5.394796609E-06  0.00000E+00  9.000E+00
</event>
<event>
     13  10001  1.00000E+00  2.95385E+01 -1.00000E+00  1.57239E-01
      21    -1     0     0   503   504  0.000000000E+00  0.000000000E+00  6.359574494E+01  6.359574494E+01  0.000000000E+00  0.00000E+00  9.000E+00
      21    -1     0     0   502   511  0.000000000E+00  0.000000000E+00 -8.828883971E+02  8.828883971E+02  0.000000000E+00  0.00000E+00  9.000E+00
       6     2     1     2   502     0  5.795047789E+00  8.709490067E+01 -1.837237138E+02  2.663785039E+02  1.720000000E+02  0.00000E+00  9.000E+00
      -6     2     1     2     0   504  7.403306992E+00 -1.135207645E+02 -4.909576699E+02  5.325084098E+02  1.720000000E+02  0.00000E+00  9.000E+00
      24     2     3     3     0     0  6.921882899E+01  7.297745573E+01 -1.215828727E+02  1.763455937E+02  7.873003341E+01  0.00000E+00  9.000E+00
     -24     2     4     4     0     0 -4.370472180E+01 -8.761777645E+01 -4.291418561E+02  4.480883131E+02  8.386552468E+01  0.00000E+00  9.000E+00
     -11     1     5     5     0     0  6.144239924E+01  6.499804160E+01 -1.330744094E+02  1.603393660E+02  2.697398305E-06  0.00000E+00  9.000E+00
      12     1     5     5     0     0  7.776429748E+00  7.979414132E+00  1.149153675E+01  1.600622774E+01  1.092571186E-06  0.00000E+00  9.000E+00
      13     1     6     6     0     0 -3.701280851E+01 -5.572155471E-01 -1.883605335E+02  1.919634056E+02  3.814697266E-06  0.00000E+00  9.000E+00
     -14     1     6     6     0     0 -6.691913297E+00 -8.706056091E+01 -2.407813226E+02  2.561249076E+02  5.394796609E-06  0.00000E+00  9.000E+00
       5     1     3     3   502     0 -6.342378120E+01  1.411744493E+01 -6.214084115E+01  9.003291016E+01  4.750000000E+00  0.00000E+00  9.000E+00
      -5     1     4     4     0   504  5.110802879E+01 -2.590298806E+01 -6.181581378E+01  8.442009673E+01  4.750000000E+00  0.00000E+00  9.000E+00
      21     1     1     2   503   511 -1.319835478E+01  2.642586385E+01 -1.446112685E+02  1.475972284E+02  1.907348633E-06  0.00000E+00  9.000E+00
</event>
<event>
     13  10001  1.00000E+00  1.08282E+01 -1.00000E+00  1.97804E-01
      21    -1     0     0   502   512  0.000000000E+00  0.000000000E+00  2.713223408E+02  2.713223408E+02  0.000000000E+00  0.00000E+00  9.000E+00
      21    -1     0     0   503   504  0.000000000E+00  0.000000000E+00 -2.589624148E+02  2.589624148E+02  0.000000000E+00  0.00000E+00  9.000E+00
       6     2     1     2   502     0 -8.952261007E+00 -1.685437557E+01  1.424858662E+02  2.241660880E+02  1.720000000E+02  0.00000E+00  9.000E+00
      -6     2     1     2     0   504  1.976006511E+01  1.619013892E+01 -1.828286573E+02  2.523150782E+02  1.720000000E+02  0.00000E+00  9.000E+00
      24     2     3     3     0     0 -6.564450425E+01 -2.849364650E+01  1.088787247E+02  1.570729771E+02  8.772829995E+01  0.00000E+00  9.000E+00
     -24     2     4     4     0     0 -3.667934018E+00 -5.453214382E+01 -8.643750401E+01  1.303957223E+02  8.089742792E+01  0.00000E+00  9.000E+00
     -11     1     5     5     0     0 -4.118631221E+01  1.138205707E+01  4.842489293E+00  4.300364216E+01  1.874468946E-06  0.00000E+00  9.000E+00
      12     1     5     5     0     0 -2.445819204E+01 -3.987570357E+01  1.040362354E+02  1.140693350E+02  2.336015456E-06  0.00000E+00  9.000E+00
      13     1     6     6     0     0 -2.793025939E+01  4.495598490E+00 -8.248470037E+00  2.946772901E+01  1.685873940E-07  0.00000E+00  9.000E+00
     -14     1     6     6     0     0  2.426232537E+01 -5.902774231E+01 -7.818903397E+01  1.009279933E+02  2.523185073E-06  0.00000E+00  9.000E+00
       5     1     3     3   502     0  5.669224325E+01  1.163927093E+01  3.360714143E+01  6.709311088E+01  4.750000000E+00  0.00000E+00  9.000E+00
      -5     1     4     4     0   504  2.342799913E+01  7.072228274E+01 -9.639115325E+01  1.219193559E+02  4.750000000E+00  0.00000E+00  9.000E+00
      21     1     1     2   503   512 -1.080780410E+01  6.642366415E-01  5.270271715E+01  5.380358943E+01  6.743495762E-07  0.00000E+00  9.000E+00
</event>
<event>
     13  10001  1.00000E+00  1.38653E+01 -1.00000E+00  1.85912E-01
      21    -1     0     0   503   504  0.000000000E+00  0.000000000E+00  1.319680976E+02  1.319680976E+02  0.000000000E+00  0.00000E+00  9.000E+00
      21    -1     0     0   511   503  0.000000000E+00  0.000000000E+00 -3.798657863E+02  3.798657863E+02  0.000000000E+00  0.00000E+00  9.000E+00
       6     2     1     2   502     0 -8.758850423E+01  6.844155910E+01 -1.749521500E+02  2.693478195E+02  1.720000000E+02  0.00000E+00  9.000E+00
      -6     2     1     2     0   504  7.383147766E+01 -6.671192261E+01 -3.458551995E+01  2.016971143E+02  1.720000000E+02  0.00000E+00  9.000E+00
      24     2     3     3     0     0 -9.026187848E+01 -7.931775282E+00 -7.173803334E+01  1.408342034E+02  8.048482880E+01  0.00000E+00  9.000E+00
     -24     2     4     4     0     0  4.078444911E+01 -9.915178461E+01 -6.063160241E+01  1.483547141E+02  8.269511658E+01  0.00000E+00  9.000E+00
     -11     1     5     5     0     0 -2.966214799E+01  1.104002438E+01  1.361226703E+01  3.445314174E+01  4.460403188E-07  0.00000E+00  9.000E+00
      12     1     5     5     0     0 -6.059973049E+01 -1.897179966E+01 -8.535030037E+01  1.063810617E+02  9.536743164E-07  0.00000E+00  9.000E+00
      13     1     6     6     0     0  5.806581161E+00 -6.114682964E+01  8.554764006E+00  6.201479780E+01  1.962432579E-06  0.00000E+00  9.000E+00
     -14     1     6     6     0     0  3.497786795E+01 -3.800495498E+01 -6.918636642E+01  8.633991630E+01  1.348699152E-06  0.00000E+00  9.000E+00
       5     1     3     3   502     0  2.673374251E+00  7.637333438E+01 -1.032141167E+02  1.285136161E+02  4.750000000E+00  0.00000E+00  9.000E+00
      -5     1     4     4     0   504  3.304702855E+01  3.243986200E+01  2.604608246E+01  5.334240016E+01  4.750000000E+00  0.00000E+00  9.000E+00
      21     1     1     2   511   502  1.375702657E+01 -1.729636485E+00 -3.836001873E+01  4.078895021E+01  4.768371582E-07  0.00000E+00  9.000E+00
</event>
<event>
     13  10001  1.00000E+00  2.89161E+01 -1.00000E+00  1.57922E-01
      21    -1     0     0   502   503  0.000000000E+00  0.000000000E+00  7.748801110E+01  7.748801110E+01  0.000000000E+00  0.00000E+00  9.000E+00
      21    -1     0     0   512   504  0.000000000E+00  0.000000000E+00 -9.084835527E+02  9.084835527E+02  0.000000000E+00  0.00000E+00  9.000E+00
       6     2     1     2   502     0 -5.958016209E+01  7.615882492E+01 -1.627775966E+02  2.557938785E+02  1.720000000E+02  0.00000E+00  9.000E+00
      -6     2     1     2     0   504  3.755389031E+01 -5.742418163E+01 -2.507880829E+02  3.117474841E+02  1.720000000E+02  0.00000E+00  9.000E+00
      24     2     3     3     0     0 -7.445315236E+01  2.295012365E+01 -1.726186419E+02  1.994753167E+02  6.263566371E+01  0.00000E+00  9.000E+00
     -24     2     4     4     0     0  6.249072690E+01  1.980163797E+00 -8.745765473E+01  1.361054807E+02  8.346764954E+01  0.00000E+00  9.000E+00
     -11     1     5     5     0     0 -2.573963681E+00  2.492632969E+01 -2.565023502E+01  3.585919348E+01  1.066240300E-06  0.00000E+00  9.000E+00
      12     1     5     5     0     0 -7.187918868E+01 -1.976206033E+00 -1.469684069E+02  1.636161232E+02  0.000000000E+00  0.00000E+00  9.000E+00
      13     1     6     6     0     0  2.064520619E+01  7.605604060E+00 -9.110714547E+01  9.372609939E+01  0.000000000E+00  0.00000E+00  9.000E+00
     -14     1     6     6     0     0  4.184552071E+01 -5.625440263E+00  3.649490734E+00  4.237938135E+01  1.473332297E-06  0.00000E+00  9.000E+00
       5     1     3     3   502     0  1.487299027E+01  5.320870127E+01  9.841045314E+00  5.631856180E+01  4.750000000E+00  0.00000E+00  9.000E+00
      -5     1     4     4     0   504 -2.493683658E+01 -5.940434543E+01 -1.633304282E+02  1.756420034E+02  4.750000000E+00  0.00000E+00  9.000E+00
      21     1     1     2   512   503  2.202627177E+01 -1.873464329E+01 -4.174298621E+02  4.184302012E+02  7.629394531E-06  0.00000E+00  9.000E+00
</event>
<event>
     13  10001  1.00000E+00  6.90155E+01 -1.00000E+00  1.34239E-01
      21    -1     0     0   503   504  0.000000000E+00  0.000000000E+00  3.123230773E+01  3.123230773E+01  0.000000000E+00  0.00000E+00  9.000E+00
      21    -1     0     0   502   511  0.000000000E+00  0.000000000E+00 -1.850911649E+03  1.850911649E+03  0.000000000E+00  0.00000E+00  9.000E+00
       6     2     1     2   502     0  5.593759230E+01  7.916393020E+01 -6.411158523E+02  6.708274578E+02  1.720000000E+02  0.00000E+00  9.000E+00
      -6     2     1     2     0   504 -1.133551233E+02 -4.087076081E+01 -8.470815315E+02  8.727261449E+02  1.720000000E+02  0.00000E+00  9.000E+00
      24     2     3     3     0     0  4.579493286E+01  6.683204888E+01 -6.438698284E+02  6.539426800E+02  8.067821374E+01  0.00000E+00  9.000E+00
     -24     2     4     4     0     0 -1.779426909E+01  7.313235489E+00 -5.623816162E+02  5.685384091E+02  8.119557247E+01  0.00000E+00  9.000E+00
     -11     1     5     5     0     0  7.298955399E+00 -1.455822384E+01 -3.693294938E+01  4.036408529E+01  3.784777609E-06  0.00000E+00  9.000E+00
      12     1     5     5     0     0  3.849597746E+01  8.139027273E+01 -6.069368790E+02  6.135785947E+02  1.705984480E-05  0.00000E+00  9.000E+00
      13     1     6     6     0     0  1.975856516E+01 -2.398997114E+01 -1.443573961E+02  1.476650853E+02  1.907348633E-06  0.00000E+00  9.000E+00
     -14     1     6     6     0     0 -3.755283425E+01  3.130320663E+01 -4.180242201E+02  4.208733238E+02  5.394796609E-06  0.00000E+00  9.000E+00
       5     1     3     3   502     0  1.014265944E+01  1.233188131E+01  2.753976098E+00  1.688477780E+01  4.750000000E+00  0.00000E+00  9.000E+00
      -5     1     4     4     0   504 -9.556085417E+01 -4.818399630E+01 -2.846999153E+02  3.041877358E+02  4.750000000E+00  0.00000E+00  9.000E+00
      21     1     1     2   503   511  5.741753095E+01 -3.829316938E+01 -3.314819574E+02  3.385903539E+02  3.814697266E-06  0.00000E+00  9.000E+00
</event>
<event>
     13  10001  1.00000E+00  4.07655E+00 -1.00000E+00  2.73064E-01
      21    -1     0     0   502   503  0.000000000E+00  0.000000000E+00  7.970662114E+02  7.970662114E+02  0.000000000E+00  0.00000E+00  9.000E+00
      21    -1     0     0   512   504  0.000000000E+00  0.000000000E+00 -7.358789717E+01  7.358789717E+01  0.000000000E+00  0.00000E+00  9.000E+00
       6     2     1     2   502     0 -1.093727718E+02 -8.132303532E+01  3.558077845E+02  4.180418864E+02  1.720000000E+02  0.00000E+00  9.000E+00
      -6     2     1     2     0   504  1.069979486E+02  8.463640863E+01  3.804231288E+02  4.392239060E+02  1.720000000E+02  0.00000E+00  9.000E+00
      24     2     3     3     0     0 -4.560492579E+01 -9.947410338E+01  1.521790715E+02  2.038386775E+02  8.010511930E+01  0.00000E+00  9.000E+00
     -24     2     4     4     0     0  9.889604157E+01  7.028031049E+00  1.623560276E+02  2.075678586E+02  8.303683500E+01  0.00000E+00  9.000E+00
     -11     1     5     5     0     0 -3.282346190E+01 -4.046476134E+01  1.540876407E+01  5.433421180E+01  2.443063442E-06  0.00000E+00  9.000E+00
      12     1     5     5     0     0 -1.278146389E+01 -5.900934203E+01  1.367703074E+02  1.495044657E+02  1.907348633E-06  0.00000E+00  9.000E+00
      13     1     6     6     0     0 -1.382181533E+01  8.331387218E+00  2.658766918E+01  3.110239129E+01  3.371747881E-07  0.00000E+00  9.000E+00
     -14     1     6     6     0     0  1.127178569E+02 -1.303356169E+00  1.357683585E+02  1.764654673E+02  3.814697266E-06  0.00000E+00  9.000E+00
       5     1     3     3   502     0 -6.376784603E+01  1.815106805E+01  2.036287130E+02  2.142032089E+02  4.750000000E+00  0.00000E+00  9.000E+00
      -5     1     4     4     0   504  8.101906988E+00  7.760837758E+01  2.180671011E+02  2.316560473E+02  4.750000000E+00  0.00000E+00  9.000E+00
      21     1     1     2   512   503  2.374823269E+00 -3.313373304E+00 -1.275259904E+01  1.338831619E+01  4.129530925E-07  0.00000E+00  9.000E+00
</event>
<event>
     13  10001  1.00000E+00  3.11535E+01 -1.00000E+00  1.55560E-01
      21    -1     0     0   511   503  0.000000000E+00  0.000000000E+00  2.364864876E+02  2.364864876E+02  0.000000000E+00  0.00000E+00  9.000E+00
      21    -1     0     0   503   504  0.000000000E+00  0.000000000E+00 -2.237374074E+02  2.237374074E+02  0.000000000E+00  0.00000E+00  9.000E+00
       6     2     1     2   502     0  1.108194531E+01  8.916713382E+01 -2.435745567E+01  1.955783038E+02  1.720000000E+02  0.00000E+00  9.000E+00
      -6     2     1     2     0   504 -3.177517891E+01 -1.124551579E+02 -9.985423447E+00  2.081814911E+02  1.720000000E+02  0.00000E+00  9.000E+00
      24     2     3     3     0     0 -5.480597733E+01  7.146383864E+01  3.191128613E+00  1.218483099E+02  8.201251080E+01  0.00000E+00  9.000E+00
     -24     2     4     4     0     0 -8.090501551E+01 -4.335991596E+01 -8.143461517E+00  1.232471127E+02  8.184027720E+01  0.00000E+00  9.000E+00
     -11     1     5     5     0     0 -1.698810807E+01 -6.736408403E+00  2.624091283E+01  3.197750022E+01  0.000000000E+00  0.00000E+00  9.000E+00
      12     1     5     5     0     0 -3.781786925E+01  7.820024704E+01 -2.304978421E+01  8.987080963E+01  1.651812370E-06  0.00000E+00  9.000E+00
      13     1     6     6     0     0  1.656694577E+01 -5.106308298E+00 -6.529673419E+00  1.852497535E+01  7.679521279E-07  0.00000E+00  9.000E+00
     -14     1     6     6     0     0 -9.747196129E+01 -3.825360766E+01 -1.613788098E+00  1.047221373E+02  1.208924146E-06  0.00000E+00  9.000E+00
       5     1     3     3   502     0  6.588792264E+01  1.770329518E+01 -2.754858428E+01  7.372999394E+01  4.750000000E+00  0.00000E+00  9.000E+00
      -5     1     4     4     0   504  4.912983661E+01 -6.909524195E+01 -1.841961930E+00  8.493437837E+01  4.750000000E+00  0.00000E+00  9.000E+00
      21     1     1     2   511   502  2.069323359E+01  2.328802409E+01  4.709195930E+01  5.646410022E+01  0.000000000E+00  0.00000E+00  9.000E+00
</event>
<event>
     13  10001  1.00000E+00  1.00268E+02 -1.00000E+00  1.26162E-01
      21    -1     0     0   502   503  0.000000000E+00  0.000000000E+00  4.251359448E+02  4.251359448E+02  0.000000000E+00  0.00000E+00  9.000E+00
      21    -1     0     0   512   504  0.000000000E+00  0.000000000E+00 -2.535687128E+02  2.535687128E+02  0.000000000E+00  0.00000E+00  9.000E+00
       6     2     1     2   502     0  1.609288847E+02  3.297503713E+01  1.037112963E+02  2.594715630E+02  1.720000000E+02  0.00000E+00  9.000E+00
      -6     2     1     2     0   504 -2.495559775E+02 -7.986714156E+01  5.212122626E+01  3.177382074E+02  1.720000000E+02  0.00000E+00  9.000E+00
      24     2     3     3     0     0  1.753823023E+02 -7.120559941E+00  9.910051440E+01  2.163394405E+02  7.856326880E+01  0.00000E+00  9.000E+00
     -24     2     4     4     0     0 -1.528522010E+02 -6.961521624E+01  9.540255958E+01  2.111898209E+02  8.537809070E+01  0.00000E+00  9.000E+00
     -11     1     5     5     0     0  7.593639039E+01  3.510461133E+01  5.182358896E+01  9.840911286E+01  1.907348633E-06  0.00000E+00  9.000E+00
      12     1     5     5     0     0  9.944591191E+01 -4.222517127E+01  4.727692544E+01  1.179303276E+02  2.236564522E-06  0.00000E+00  9.000E+00
      13     1     6     6     0     0 -8.806711308E+01  6.361491441E+00  3.915320942E+01  9.658808823E+01  1.168007728E-06  0.00000E+00  9.000E+00
     -14     1     6     6     0     0 -6.478508795E+01 -7.597670768E+01  5.624935016E+01  1.146017326E+02  3.438521648E-06  0.00000E+00  9.000E+00
       5     1     3     3   502     0 -1.445341758E+01  4.009559707E+01  4.610781909E+00  4.313212253E+01  4.750000000E+00  0.00000E+00  9.000E+00
      -5     1     4     4     0   504 -9.670377648E+01 -1.025192532E+01 -4.328133332E+01  1.065483865E+02  4.750000000E+00  0.00000E+00  9.000E+00
      21     1     1     2   512   503  8.862709280E+01  4.689210443E+01  1.573470945E+01  1.014948871E+02  7.152557373E-07  0.00000E+00  9.000E+00
</event>
<event>
     13  10001  1.00000E+00  1.44353E+02 -1.00000E+00  1.19184E-01
      21    -1     0     0   511   503  0.000000000E+00  0.000000000E+00  2.623934163E+02  2.623934163E+02  0.000000000E+00  0.00000E+00  9.000E+00
      21    -1     0     0   503   504  0.000000000E+00  0.000000000E+00 -7.582076270E+02  7.582076270E+02  0.000000000E+00  0.00000E+00  9.000E+00
       6     2     1     2   502     0  7.735991923E+01  2.976014488E+02 -4.315231728E+02  5.570883486E+02  1.720000000E+02  0.00000E+00  9.000E+00
      -6     2     1     2     0   504 -3.564523487E+01 -1.594075942E+02 -1.637312135E+02  2.882243469E+02  1.720000000E+02  0.00000E+00  9.000E+00
      24     2     3     3     0     0 -1.938808806E+01  1.296664064E+02 -1.969860685E+02  2.527980740E+02  8.896111589E+01  0.00000E+00  9.000E+00
     -24     2     4     4     0     0 -4.979192657E+01 -1.793785076E+02 -1.116690513E+02  2.305008898E+02  7.749063316E+01  0.00000E+00  9.000E+00
     -11     1     5     5     0     0 -3.007748260E+01  5.577364911E+00 -6.197022030E+01  6.910911780E+01  9.536743164E-07  0.00000E+00  9.000E+00
      12     1     5     5     0     0  1.068939454E+01  1.240890415E+02 -1.350158482E+02  1.836889562E+02  4.672030912E-06  0.00000E+00  9.000E+00
      13     1     6     6     0     0 -6.419545939E+01 -1.501688038E+02 -1.118283723E+02  1.979325933E+02  4.264961200E-06  0.00000E+00  9.000E+00
     -14     1     6     6     0     0  1.440353282E+01 -2.920970379E+01  1.593209455E-01  3.256829649E+01  9.706812015E-07  0.00000E+00  9.000E+00
       5     1     3     3   502     0  9.674800729E+01  1.679350424E+02 -2.345371044E+02  3.042902746E+02  4.750000000E+00  0.00000E+00  9.000E+00
      -5     1     4     4     0   504  1.414669170E+01  1.997091339E+01 -5.206216219E+01  5.772345710E+01  4.750000000E+00  0.00000E+00  9.000E+00
      21     1     1     2   511   502 -4.171468436E+01 -1.381938546E+02  9.944017563E+01  1.752883478E+02  4.473129043E-06  0.00000E+00  9.000E+00
</event>
<event>
     13  10001  1.00000E+00  3.85789E+01 -1.00000E+00  1.49173E-01
      21    -1     0     0   512   504  0.000000000E+00  0.000000000E+00  6.268186584E+02  6.268186584E+02  0.000000000E+00  0.00000E+00  9.000E+00
      21    -1     0     0   502   503  0.000000000E+00  0.000000000E+00 -1.429125938E+02  1.429125938E+02  0.000000000E+00  0.00000E+00  9.000E+00
       6     2     1     2   502     0 -1.728256003E+02  9.557030990E+01  2.711942695E+02  3.770049125E+02  1.720000000E+02  0.00000E+00  9.000E+00
      -6     2     1     2     0   504  1.383320713E+02 -1.128483067E+02  8.941163719E+01  2.635316739E+02  1.720000000E+02  0.00000E+00  9.000E+00
      24     2     3     3     0     0 -1.225537243E+02  2.212481620E+01  2.407069518E+02  2.828054374E+02  8.080938042E+01  0.00000E+00  9.000E+00
     -24     2     4     4     0     0  6.420703126E+01 -8.927855021E+01 -1.057444988E+01  1.367648206E+02  8.062006435E+01  0.00000E+00  9.000E+00
     -11     1     5     5     0     0 -1.077093448E+02  3.241282539E+01  1.357000214E+02  1.762566027E+02  2.697398305E-06  0.00000E+00  9.000E+00
      12     1     5     5     0     0 -1.484437948E+01 -1.028800918E+01  1.050069305E+02  1.065488347E+02  3.303624740E-06  0.00000E+00  9.000E+00
      13     1     6     6     0     0 -1.334048906E+01 -4.489751973E+01 -6.870740831E+00  4.733881078E+01  9.117757404E-07  0.00000E+00  9.000E+00
     -14     1     6     6     0     0  7.754752031E+01 -4.438103048E+01 -3.703709046E+00  8.942600983E+01  2.856051576E-06  0.00000E+00  9.000E+00
       5     1     3     3   502     0 -5.027187605E+01  7.344549369E+01  3.048731765E+01  9.419947507E+01  4.750000000E+00  0.00000E+00  9.000E+00
      -5     1     4     4     0   504  7.412504009E+01 -2.356975648E+01  9.998608706E+01  1.267668533E+02  4.750000000E+00  0.00000E+00  9.000E+00
      21     1     1     2   512   503  3.449352899E+01  1.727799680E+01  1.233001580E+02  1.291946658E+02  1.348699152E-06  0.00000E+00  9.000E+00
</event>
<event>
     13  10001  1.00000E+00  1.56610E+01 -1.00000E+00  1.80583E-01
      21    -1     0     0   502   503  0.000000000E+00  0.000000000E+00  1.097479591E+03  1.097479591E+03  0.000000000E+00  0.00000E+00  9.000E+00
      21    -1     0     0   511   504  0.000000000E+00  0.000000000E+00 -1.083692415E+02  1.083692415E+02  0.000000000E+00  0.00000E+00  9.000E+00
       6     2     1     2   502     0  7.865251649E+01 -3.747367525E+01  1.413718963E+00  1.928120673E+02  1.720000000E+02  0.00000E+00  9.000E+00
      -6     2     1     2     0   504 -9.085716062E+01  2.765974065E+01  9.686614981E+02  9.883871624E+02  1.720000000E+02  0.00000E+00  9.000E+00
      24     2     3     3     0     0  6.775231308E+01 -7.144458265E+01 -4.488939907E+01  1.341658549E+02  7.931402249E+01  0.00000E+00  9.000E+00
     -24     2     4     4     0     0 -1.018338657E+02  1.752265699E+01  3.920817255E+02  4.115942661E+02  7.074306136E+01  0.00000E+00  9.000E+00
     -11     1     5     5     0     0  2.662255853E+01  1.078854858E+01 -2.907232434E+01  4.086995774E+01  2.158972058E-06  0.00000E+00  9.000E+00
      12     1     5     5     0     0  4.112975456E+01 -8.223313122E+01 -1.581707473E+01  9.329589720E+01  4.214684851E-06  0.00000E+00  9.000E+00
      13     1     6     6     0     0 -5.195865233E+01  2.093422206E+01  9.460103463E+01  1.099422528E+02  0.000000000E+00  0.00000E+00  9.000E+00
     -14     1     6     6     0     0 -4.987521334E+01 -3.411565069E+00  2.974806909E+02  3.016520133E+02  3.814697266E-06  0.00000E+00  9.000E+00
       5     1     3     3   502     0  1.090020341E+01  3.397090740E+01  4.630311803E+01  5.864621235E+01  4.750000000E+00  0.00000E+00  9.000E+00
      -5     1     4     4     0   504  1.097670504E+01  1.013708366E+01  5.765797727E+02  5.767928963E+02  4.750000000E+00  0.00000E+00  9.000E+00
      21     1     1     2   511   503  1.220464412E+01  9.813934602E+00  1.903513233E+01  2.464960271E+01  0.000000000E+00  0.00000E+00  9.000E+00
</event>
<event>
     13  10001  1.00000E+00  5.70711E+01 -1.00000E+00  1.38769E-01
      21    -1     0     0   502   503  0.000000000E+00  0.000000000E+00  5.730415945E+02  5.730415945E+02  0.000000000E+00  0.00000E+00  9.000E+00
      -3    -1     0     0     0   504  0.000000000E+00  0.000000000E+00 -1.378284840E+02  1.378284840E+02  0.000000000E+00  0.00000E+00  9.000E+00
       6     2     1     2   502     0  6.740556704E+01 -8.049089802E+01  1.835014467E+02  2.725418795E+02  1.720000000E+02  0.00000E+00  9.000E+00
      -6     2     1     2     0   504 -1.717703672E+01  5.339462224E+01  3.086165938E+02  3.577348714E+02  1.720000000E+02  0.00000E+00  9.000E+00
      24     2     3     3     0     0  4.169389671E+01 -3.678172385E+01  2.187728437E+01  1.030824028E+02  8.400053547E+01  0.00000E+00  9.000E+00
     -24     2     4     4     0     0 -2.563624694E+01  6.259516874E+01  8.922792652E+01  1.379391524E+02  8.056186802E+01  0.00000E+00  9.000E+00
     -11     1     5     5     0     0  3.800169572E+01 -2.465212752E+01  5.285539874E+01  6.960998092E+01  6.743495762E-07  0.00000E+00  9.000E+00
      12     1     5     5     0     0  3.692200996E+00 -1.212959633E+01 -3.097811437E+01  3.347242186E+01  8.920806376E-07  0.00000E+00  9.000E+00
      13     1     6     6     0     0 -1.330692144E+01 -9.181141202E-01  6.881590267E+01  7.009668717E+01  1.348699152E-06  0.00000E+00  9.000E+00
     -14     1     6     6     0     0 -1.232932550E+01  6.351328286E+01  2.041202385E+01  6.784246520E+01  1.348699152E-06  0.00000E+00  9.000E+00
       5     1     3     3   502     0  2.571167033E+01 -4.370917417E+01  1.616241623E+02  1.694594767E+02  4.750000000E+00  0.00000E+00  9.000E+00
      -5     1     4     4     0   504  8.459210220E+00 -9.200546494E+00  2.193886672E+02  2.197957190E+02  4.750000000E+00  0.00000E+00  9.000E+00
      -3     1     1     2     0   503 -5.022853033E+01  2.709627577E+01 -5.690492986E+01  8.059332765E+01  0.000000000E+00  0.00000E+00  9.000E+00
</event>
<event>
     13  10001  1.00000E+00  1.16730E+02 -1.00000E+00  1.23152E-01
      -3    -1     0     0     0   503  0.000000000E+00  0.000000000E+00  6.528275535E+02  6.528275535E+02  0.000000000E+00  0.00000E+00  9.000E+00
      21    -1     0     0   503   504  0.000000000E+00  0.000000000E+00 -1.154847760E+02  1.154847760E+02  0.000000000E+00  0.00000E+00  9.000E+00
       6     2     1     2   502     0 -6.884101793E+00  3.811694339E+01  9.665015264E+01  2.010610460E+02  1.720000000E+02  0.00000E+00  9.000E+00
      -6     2     1     2     0   504  1.161455927E+02  2.967359722E+00  1.562904481E+02  2.598255339E+02  1.720000000E+02  0.00000E+00  9.000E+00
      24     2     3     3     0     0  2.177075688E+01  7.118339522E+01  1.672674535E+01  1.098206784E+02  7.899212477E+01  0.00000E+00  9.000E+00
     -24     2     4     4     0     0  1.022239501E+02 -5.798449941E+01  1.280793157E+02  1.910696487E+02  7.931810266E+01  0.00000E+00  9.000E+00
     -11     1     5     5     0     0 -1.370376637E+01  8.907313790E-02  2.643534274E+01  2.977630757E+01  6.743495762E-07  0.00000E+00  9.000E+00
      12     1     5     5     0     0  3.547452325E+01  7.109432208E+01 -9.708597389E+00  8.004437079E+01  1.111910230E-06  0.00000E+00  9.000E+00
      13     1     6     6     0     0  5.882279634E+00 -2.392608343E+01  6.847278055E+01  7.277073834E+01  1.651812370E-06  0.00000E+00  9.000E+00
     -14     1     6     6     0     0  9.634167044E+01 -3.405841597E+01  5.960653511E+01  1.182989103E+02  1.348699152E-06  0.00000E+00  9.000E+00
       5     1     3     3   502     0 -2.865485867E+01 -3.306645183E+01  7.992340729E+01  9.124036768E+01  4.750000000E+00  0.00000E+00  9.000E+00
      -5     1     4     4     0   504  1.392164262E+01  6.095185913E+01  2.821113242E+01  6.875588525E+01  4.750000000E+00  0.00000E+00  9.000E+00
      -3     1     1     2     0   502 -1.092614909E+02 -4.108430311E+01  2.844021767E+02  3.074257496E+02  5.394796609E-06  0.00000E+00  9.000E+00
</event>
<event>
     13  10001  1.00000E+00  3.70383E+01 -1.00000E+00  1.50349E-01
       2    -1     0     0   502     0  0.000000000E+00  0.000000000E+00  9.596442484E+02  9.596442484E+02  0.000000000E+00  0.00000E+00  9.000E+00
      21    -1     0     0   511   512  0.000000000E+00  0.000000000E+00 -4.733298921E+01  4.733298921E+01  0.000000000E+00  0.00000E+00  9.000E+00
       6     2     1     2   502     0 -2.187229409E+01  1.011094091E+01  2.165670616E+02  2.776074937E+02  1.720000000E+02  0.00000E+00  9.000E+00
      -6     2     1     2     0   512 -1.489018249E+01 -1.462240612E+01  6.350994289E+02  6.583090588E+02  1.720000000E+02  0.00000E+00  9.000E+00
      24     2     3     3     0     0 -1.696868153E+01 -2.642305676E+01  3.229412766E+01  8.962383725E+01  7.748165873E+01  0.00000E+00  9.000E+00
     -24     2     4     4     0     0  2.688819673E+01 -2.869640066E+01  5.833829919E+02  5.901866495E+02  8.023781812E+01  0.00000E+00  9.000E+00
     -11     1     5     5     0     0 -4.429529768E+01 -1.294541748E+01  3.653621833E+01  5.886044920E+01  8.259061849E-07  0.00000E+00  9.000E+00
      12     1     5     5     0     0  2.732661615E+01 -1.347763928E+01 -4.242090670E+00  3.076338805E+01  2.598106231E-07  0.00000E+00  9.000E+00
      13     1     6     6     0     0 -6.859175312E+00 -1.667142865E+00  2.194584331E+00  7.392147975E+00  6.419616708E-07  0.00000E+00  9.000E+00
     -14     1     6     6     0     0  3.374737204E+01 -2.702925779E+01  5.811884076E+02  5.827945015E+02  1.321449896E-05  0.00000E+00  9.000E+00
       5     1     3     3   502     0 -4.903612557E+00  3.653399767E+01  1.842729339E+02  1.879836564E+02  4.750000000E+00  0.00000E+00  9.000E+00
      -5     1     4     4     0   512 -4.177837922E+01  1.407399454E+01  5.171643697E+01  6.812240928E+01  4.750000000E+00  0.00000E+00  9.000E+00
       2     1     1     2   511     0  3.676247658E+01  4.511465210E+00  6.064476868E+01  7.106068512E+01  1.507891493E-06  0.00000E+00  9.000E+00
</event>
<event>
     13  10001  1.00000E+00  9.61120E+01 -1.00000E+00  1.27027E-01
      21    -1     0     0   512   504  0.000000000E+00  0.000000000E+00  2.511172598E+02  2.511172598E+02  0.000000000E+00  0.00000E+00  9.000E+00
      21    -1     0     0   502   503  0.000000000E+00  0.000000000E+00 -7.521853205E+02  7.521853205E+02  0.000000000E+00  0.00000E+00  9.000E+00
       6     2     1     2   502     0 -1.075516973E+01  2.376125849E+00 -6.275289779E+02  6.507671917E+02  1.720000000E+02  0.00000E+00  9.000E+00
      -6     2     1     2     0   504  9.312065328E+01 -5.190842544E+01  1.149587051E+01  2.026871869E+02  1.720000000E+02  0.00000E+00  9.000E+00
      24     2     3     3     0     0  2.658836821E+01  2.444506703E+01 -1.603381837E+02  1.815429610E+02  7.710389679E+01  0.00000E+00  9.000E+00
     -24     2     4     4     0     0  1.155243712E+02 -1.385214161E+01  4.510465063E+01  1.469887137E+02  7.767554505E+01  0.00000E+00  9.000E+00
     -11     1     5     5     0     0  5.161887888E+01  1.831803512E+01 -7.832476135E+01  9.557629051E+01  1.651812370E-06  0.00000E+00  9.000E+00
      12     1     5     5     0     0 -2.503051067E+01  6.127031909E+00 -8.201342236E+01  8.596667047E+01  1.348699152E-06  0.00000E+00  9.000E+00
      13     1     6     6     0     0  5.518942506E+01  3.228831673E+01  2.032923527E+01  6.709460367E+01  1.815741803E-06  0.00000E+00  9.000E+00
     -14     1     6     6     0     0  6.033494610E+01 -4.614045834E+01  2.477541536E+01  7.989411006E+01  4.768371582E-07  0.00000E+00  9.000E+00
       5     1     3     3   502     0 -3.734353793E+01 -2.206894118E+01 -4.671907942E+02  4.692242307E+02  4.750000000E+00  0.00000E+00  9.000E+00
      -5     1     4     4     0   504 -2.240371788E+01 -3.805628383E+01 -3.360878012E+01  5.569847318E+01  4.750000000E+00  0.00000E+00  9.000E+00
      21     1     1     2   512   503 -8.236548355E+01  4.953229959E+01  1.149650467E+02  1.498482017E+02  1.907348633E-06  0.00000E+00  9.000E+00
</event>
<event>
     13  10001  1.00000E+00  4.27067E+01 -1.00000E+00  1.46321E-01
       1    -1     0     0   511     0  0.000000000E+00  0.000000000E+00  9.582092542E+02  9.582092542E+02  0.000000000E+00  0.00000E+00  9.000E+00
      -1    -1     0     0     0   512  0.000000000E+00  0.000000000E+00 -7.487398277E+02  7.487398277E+02  0.000000000E+00  0.00000E+00  9.000E+00
       6     2     1     2   502     0 -2.247039174E+02  6.595352241E+01  2.083318384E+01  2.913069501E+02  1.720000000E+02  0.00000E+00  9.000E+00
      -6     2     1     2     0   512  2.033573502E+02 -2.896448306E+01 -5.836359162E+02  6.421900310E+02  1.720000000E+02  0.00000E+00  9.000E+00
      24     2     3     3     0     0 -1.381673297E+02  5.173076981E+01 -5.342256041E+01  1.762967516E+02  8.037593620E+01  0.00000E+00  9.000E+00
     -24     2     4     4     0     0  1.566415925E+02  3.210983496E+01 -4.843374899E+02  5.165111771E+02  8.144545371E+01  0.00000E+00  9.000E+00
     -11     1     5     5     0     0 -6.006485577E+01  1.530842735E+00  1.382829603E+01  6.165510643E+01  1.118282261E-06  0.00000E+00  9.000E+00
      12     1     5     5     0     0 -7.810247392E+01  5.019992708E+01 -6.725085644E+01  1.146416452E+02  1.651812370E-06  0.00000E+00  9.000E+00
      13     1     6     6     0     0  1.249455718E+02 -7.224929324E+00 -2.928496323E+02  3.184721380E+02  5.394796609E-06  0.00000E+00  9.000E+00
     -14     1     6     6     0     0  3.169602068E+01  3.933476429E+01 -1.914878577E+02  1.980390392E+02  0.000000000E+00  0.00000E+00  9.000E+00
       5     1     3     3   502     0 -8.653658776E+01  1.422275260E+01  7.425574424E+01  1.150101985E+02  4.750000000E+00  0.00000E+00  9.000E+00
      -5     1     4     4     0   512  4.671575771E+01 -6.107431802E+01 -9.929842627E+01  1.256788538E+02  4.750000000E+00  0.00000E+00  9.000E+00
      21     1     1     2   511   502  2.134656726E+01 -3.698903935E+01  7.722721589E+02  7.734521009E+02  1.078959322E-05  0.00000E+00  9.000E+00
</event>
<event>
     13  10001  1.00000E+00  8.95991E+00 -1.00000E+00  2.08045E-01
      21    -1     0     0   503   504  0.000000000E+00  0.000000000E+00  1.608575067E+02  1.608575067E+02  0.000000000E+00  0.00000E+00  9.000E+00
      21    -1     0     0   512   503  0.000000000E+00  0.000000000E+00 -2.521316132E+02  2.521316132E+02  0.000000000E+00  0.00000E+00  9.000E+00
       6     2     1     2   502     0  4.048822043E+01 -5.493568844E+01  2.631475312E+01  1.869055700E+02  1.720000000E+02  0.00000E+00  9.000E+00
      -6     2     1     2     0   504 -3.171553075E+01  5.311361613E+01 -1.055381026E+02  2.110668667E+02  1.720000000E+02  0.00000E+00  9.000E+00
      24     2     3     3     0     0  8.020316427E+01 -3.349876441E+01  5.845694124E+01  1.312953080E+02  7.916141207E+01  0.00000E+00  9.000E+00
     -24     2     4     4     0     0 -4.250641047E+01  4.977126653E+01  1.004095431E+00  1.038222078E+02  8.058578490E+01  0.00000E+00  9.000E+00
     -11     1     5     5     0     0 -1.189320409E+01 -1.825348188E+01  1.273515566E+00  2.182337614E+01  8.010673556E-07  0.00000E+00  9.000E+00
      12     1     5     5     0     0  9.209636835E+01 -1.524528253E+01  5.718342568E+01  1.094719319E+02  2.939421655E-06  0.00000E+00  9.000E+00
      13     1     6     6     0     0 -5.404893196E+00 -2.103667379E+01  8.944501812E+00  2.348954293E+01  7.539457465E-07  0.00000E+00  9.000E+00
     -14     1     6     6     0     0 -3.710151727E+01  7.080794031E+01 -7.940406382E+00  8.033266489E+01  7.001960352E-07  0.00000E+00  9.000E+00
       5     1     3     3   502     0 -3.971494383E+01 -2.143692403E+01 -3.214218812E+01  5.561026194E+01  4.750000000E+00  0.00000E+00  9.000E+00
      -5     1     4     4     0   504  1.079087972E+01  3.342349609E+00 -1.065421981E+02  1.072446589E+02  4.750000000E+00  0.00000E+00  9.000E+00
      21     1     1     2   512   502 -8.772689688E+00  1.822072308E+00 -1.205075701E+01  1.501668327E+01  1.685873940E-07  0.00000E+00  9.000E+00
</event>
<event>
     13  10001  1.00000E+00  7.11775E+01 -1.00000E+00  1.33532E-01
      -1    -1     0     0     0   511  0.000000000E+00  0.000000000E+00  1.770129536E+02  1.770129536E+02  0.000000000E+00  0.00000E+00  9.000E+00
       1    -1     0     0   502     0  0.000000000E+00  0.000000000E+00 -2.844596145E+02  2.844596145E+02  0.000000000E+00  0.00000E+00  9.000E+00
       6     2     1     2   502     0  1.735947314E+01  6.108516954E+01 -4.103254090E+00  1.833946181E+02  1.720000000E+02  0.00000E+00  9.000E+00
      -6     2     1     2     0   512  4.944450021E+01 -3.651953053E+01 -9.648295294E+01  2.065705568E+02  1.720000000E+02  0.00000E+00  9.000E+00
      24     2     3     3     0     0  7.897662836E+01  5.120688126E+01 -2.225266928E+01  1.182316058E+02  6.800057944E+01  0.00000E+00  9.000E+00
     -24     2     4     4     0     0 -1.809015493E+01 -2.388581464E+01 -2.287098586E+00  8.988310284E+01  8.471101174E+01  0.00000E+00  9.000E+00
     -11     1     5     5     0     0  1.934818422E+01  3.190165153E+01 -3.836728052E+01  5.351743471E+01  1.348699152E-06  0.00000E+00  9.000E+00
      12     1     5     5     0     0  5.962844414E+01  1.930522973E+01  1.611461124E+01  6.471417109E+01  9.233911863E-07  0.00000E+00  9.000E+00
      13     1     6     6     0     0  2.381037490E+01 -3.635633104E+01 -1.203005513E+01  4.509366902E+01  4.129530925E-07  0.00000E+00  9.000E+00
     -14     1     6     6     0     0 -4.190052983E+01  1.247051640E+01  9.742956544E+00  4.478943382E+01  3.769728732E-07  0.00000E+00  9.000E+00
       5     1     3     3   502     0 -6.161715522E+01  9.878288279E+00  1.814941519E+01  6.516301228E+01  4.750000000E+00  0.00000E+00  9.000E+00
      -5     1     4     4     0   512  6.753465515E+01 -1.263371589E+01 -9.419585436E+01  1.166874539E+02  4.750000000E+00  0.00000E+00  9.000E+00
      21     1     1     2   512   511 -6.680397335E+01 -2.456563901E+01 -6.860453849E+00  7.150739334E+01  1.592682507E-06  0.00000E+00  9.000E+00
</event>
<event>
     13  10001  1.00000E+00  2.07527E+01 -1.00000E+00  1.69397E-01
      21    -1     0     0   502   503  0.000000000E+00  0.000000000E+00  7.912352853E+01  7.912352853E+01  0.000000000E+00  0.00000E+00  9.000E+00
      21    -1     0     0   513   504  0.000000000E+00  0.000000000E+00 -5.281737622E+02  5.281737622E+02  0.000000000E+00  0.00000E+00  9.000E+00
       6     2     1     2   502     0  3.355832367E+01 -2.822702480E+01 -9.510564991E+01  2.013752980E+02  1.720000000E+02  0.00000E+00  9.000E+00
      -6     2     1     2     0   504 -1.748436456E+01  4.135345057E+01 -3.107856667E+02  3.580328777E+02  1.720000000E+02  0.00000E+00  9.000E+00
      24     2     3     3     0     0 -3.788670257E+01 -2.838730252E+01 -1.684977441E+01  9.530474598E+01  8.098048242E+01  0.00000E+00  9.000E+00
     -24     2     4     4     0     0 -1.899514832E+01  9.172120144E+01 -1.353670377E+02  1.754583704E+02  6.072734480E+01  0.00000E+00  9.000E+00
     -11     1     5     5     0     0 -6.009768162E+01 -1.787649814E+01 -2.757225711E+01  6.849474348E+01  6.743495762E-07  0.00000E+00  9.000E+00
      12     1     5     5     0     0  2.221097905E+01 -1.051080438E+01  1.072248270E+01  2.681000250E+01  8.172577143E-07  0.00000E+00  9.000E+00
      13     1     6     6     0     0 -2.322603718E+01  5.924253952E+01 -1.263784208E+02  1.414942845E+02  1.907348633E-06  0.00000E+00  9.000E+00
     -14     1     6     6     0     0  4.230888857E+00  3.247866192E+01 -8.988616860E+00  3.396408594E+01  1.316709640E-06  0.00000E+00  9.000E+00
       5     1     3     3   502     0  7.144502624E+01  1.602777155E-01 -7.825587550E+01  1.060705521E+02  4.750000000E+00  0.00000E+00  9.000E+00
      -5     1     4     4     0   504  1.510783763E+00 -5.036775087E+01 -1.754186290E+02  1.825745073E+02  4.750000000E+00  0.00000E+00  9.000E+00
      21     1     1     2   513   503 -1.607395911E+01 -1.312642577E+01 -4.315891705E+01  4.788911500E+01  4.768371582E-07  0.00000E+00  9.000E+00
</event>
<event>
     13  10001  1.00000E+00  1.10380E+02 -1.00000E+00  1.24242E-01
       1    -1     0     0   503     0  0.000000000E+00  0.000000000E+00  1.136346204E+03  1.136346204E+03  0.000000000E+00  0.00000E+00  9.000E+00
      21    -1     0     0   502   503  0.000000000E+00  0.000000000E+00 -9.008286417E+01  9.008286417E+01  0.000000000E+00  0.00000E+00  9.000E+00
       6     2     1     2   502     0 -1.270431068E+02  1.447824265E+02  4.431994729E+02  5.129441244E+02  1.720000000E+02  0.00000E+00  9.000E+00
      -6     2     1     2     0   504  3.463374992E+01 -2.051498639E+02  4.503367792E+02  5.250458818E+02  1.720000000E+02  0.00000E+00  9.000E+00
      24     2     3     3     0     0 -9.855196023E+01  2.105534608E+01  2.052650697E+02  2.432118894E+02  8.283995333E+01  0.00000E+00  9.000E+00
     -24     2     4     4     0     0  7.219878897E+00 -7.032453970E+01  3.135740547E+02  3.309943586E+02  7.893611381E+01  0.00000E+00  9.000E+00
     -11     1     5     5     0     0 -8.830262142E+01  4.528415652E+01  1.304487577E+02  1.639051133E+02  1.907348633E-06  0.00000E+00  9.000E+00
      12     1     5     5     0     0 -1.024933881E+01 -2.422881044E+01  7.481631203E+01  7.930677618E+01  9.536743164E-07  0.00000E+00  9.000E+00
      13     1     6     6     0     0  5.822007563E+00  1.553545192E+01  2.573480410E+01  3.061904931E+01  3.371747881E-07  0.00000E+00  9.000E+00
     -14     1     6     6     0     0  1.397871334E+00 -8.585999162E+01  2.878392506E+02  3.003753092E+02  6.607249480E-06  0.00000E+00  9.000E+00
       5     1     3     3   502     0 -2.849114656E+01  1.237270804E+02  2.379344032E+02  2.697322350E+02  4.750000000E+00  0.00000E+00  9.000E+00
      -5     1     4     4     0   504  2.741387102E+01 -1.348253242E+02  1.367627245E+02  1.940515233E+02  4.750000000E+00  0.00000E+00  9.000E+00
       1     1     1     2   504     0  9.240935687E+01  6.036743740E+01  1.527270875E+02  1.884390618E+02  3.303624740E-06  0.00000E+00  9.000E+00
</event>
<event>
     13  10001  1.00000E+00  2.49338E+01 -1.00000E+00  1.62843E-01
      21    -1     0     0   511   503  0.000000000E+00  0.000000000E+00  1.683377735E+02  1.683377735E+02  0.000000000E+00  0.00000E+00  9.000E+00
      21    -1     0     0   503   504  0.000000000E+00  0.000000000E+00 -3.349054342E+02  3.349054342E+02  0.000000000E+00  0.00000E+00  9.000E+00
       6     2     1     2   502     0  3.765346767E+01  1.454732989E+02 -8.169901405E+01  2.425675024E+02  1.720000000E+02  0.00000E+00  9.000E+00
      -6     2     1     2     0   504 -1.742315354E+01 -1.308983048E+02 -9.073129255E+01  2.350619066E+02  1.720000000E+02  0.00000E+00  9.000E+00
      24     2     3     3     0     0 -4.373930164E+01  6.785642681E+01 -5.420688845E+01  1.266902346E+02  8.120595798E+01  0.00000E+00  9.000E+00
     -24     2     4     4     0     0 -7.342272303E+00 -6.263744965E+01 -1.216607982E+02  1.592967079E+02  8.122026999E+01  0.00000E+00  9.000E+00
     -11     1     5     5     0     0 -5.706089678E+01  7.845301809E+01 -4.182744336E+01  1.056425909E+02  2.523185073E-06  0.00000E+00  9.000E+00
      12     1     5     5     0     0  1.332159514E+01 -1.059659128E+01 -1.237944509E+01  2.104764369E+01  2.920019320E-07  0.00000E+00  9.000E+00
      13     1     6     6     0     0 -1.712254122E+01 -4.907252411E+00  6.043267217E+00  1.880913668E+01  8.960542904E-07  0.00000E+00  9.000E+00
     -14     1     6     6     0     0  9.780268914E+00 -5.773019723E+01 -1.277040654E+02  1.404875712E+02  1.907348633E-06  0.00000E+00  9.000E+00
       5     1     3     3   502     0  8.139276931E+01  7.761687211E+01 -2.749212561E+01  1.158772678E+02  4.750000000E+00  0.00000E+00  9.000E+00
      -5     1     4     4     0   504 -1.008088124E+01 -6.826085517E+01  3.092950567E+01  7.576519872E+01  4.750000000E+00  0.00000E+00  9.000E+00
      21     1     1     2   511   502 -2.023031414E+01 -1.457499410E+01  5.862645928E+00  2.561379863E+01  1.884864366E-07  0.00000E+00  9.000E+00
</event>
<event>
     13  10001  1.00000E+00  4.78705E+01 -1.00000E+00  1.43250E-01
      21    -1     0     0   503   504  0.000000000E+00  0.000000000E+00  1.463667018E+02  1.463667018E+02  0.000000000E+00  0.00000E+00  9.000E+00
      21    -1     0     0   512   503  0.000000000E+00  0.000000000E+00 -4.347212039E+02  4.347212039E+02  0.000000000E+00  0.00000E+00  9.000E+00
       6     2     1     2   502     0 -8.972444804E+01  9.212639458E+01 -1.987608273E+02  2.926219671E+02  1.720000000E+02  0.00000E+00  9.000E+00
      -6     2     1     2     0   504  5.901019481E+01 -5.540829229E+01 -3.697844820E+00  1.901314177E+02  1.720000000E+02  0.00000E+00  9.000E+00
      24     2     3     3     0     0 -6.701551204E+01  1.318383697E+02 -1.569837010E+02  2.304880188E+02  8.129212669E+01  0.00000E+00  9.000E+00
     -24     2     4     4     0     0 -3.568256091E+01 -2.643988977E+01 -1.062959731E+01  9.075084606E+01  7.842458031E+01  0.00000E+00  9.000E+00
     -11     1     5     5     0     0 -8.179845715E+01  1.303007937E+02 -1.447331340E+02  2.112272816E+02  1.907348633E-06  0.00000E+00  9.000E+00
      12     1     5     5     0     0  1.478294511E+01  1.537576067E+00 -1.225056696E+01  1.926073719E+01  7.725644944E-07  0.00000E+00  9.000E+00
      13     1     6     6     0     0 -4.473946077E+00  1.741403825E+01 -2.879138322E+01  3.394419935E+01  4.768371582E-07  0.00000E+00  9.000E+00
     -14     1     6     6     0     0 -3.120861483E+01 -4.385392802E+01  1.816178591E+01  5.680664671E+01  9.830249847E-07  0.00000E+00  9.000E+00
       5     1     3     3   502     0 -2.270893600E+01 -3.971197514E+01 -4.177712635E+01  6.213394829E+01  4.750000000E+00  0.00000E+00  9.000E+00
      -5     1     4     4     0   504  9.469275572E+01 -2.896840251E+01  6.931752494E+00  9.938057166E+01  4.750000000E+00  0.00000E+00  9.000E+00
      21     1     1     2   512   502  3.071425322E+01 -3.671810229E+01 -8.589582996E+01  9.833452085E+01  1.348699152E-06  0.00000E+00  9.000E+00
</event>
<event>
     13  10001  1.00000E+00  3.25361E+01 -1.00000E+00  1.54218E-01
      21    -1     0     0   502   503  0.000000000E+00  0.000000000E+00  8.348430287E+02  8.348430287E+02  0.000000000E+00  0.00000E+00  9.000E+00
      21    -1     0     0   503   511  0.000000000E+00  0.000000000E+00 -1.165255351E+02  1.165255351E+02  0.000000000E+00  0.00000E+00  9.000E+00
       6     2     1     2   502     0 -2.132151002E+01 -1.344579380E+01  5.866276400E+02  6.118426139E+02  1.720000000E+02  0.00000E+00  9.000E+00
      -6     2     1     2     0   504  5.312887329E+01  6.598165519E+00  1.967647211E+02  2.667706289E+02  1.720000000E+02  0.00000E+00  9.000E+00
      24     2     3     3     0     0  2.489793025E+01 -5.827676894E+01  2.702598526E+02  2.889537903E+02  8.023600363E+01  0.00000E+00  9.000E+00
     -24     2     4     4     0     0  4.864873020E+01  5.779890102E+01  7.301305280E+01  1.326862342E+02  8.103899649E+01  0.00000E+00  9.000E+00
     -11     1     5     5     0     0 -1.697857778E+01  7.962447181E+00  9.698841702E+01  9.878474429E+01  0.000000000E+00  0.00000E+00  9.000E+00
      12     1     5     5     0     0  4.187650803E+01 -6.623921612E+01  1.732714356E+02  1.901690461E+02  1.907348633E-06  0.00000E+00  9.000E+00
      13     1     6     6     0     0  1.650241080E+01  6.219181196E+01  7.660562706E+01  1.000428565E+02  1.348699152E-06  0.00000E+00  9.000E+00
     -14     1     6     6     0     0  3.214631940E+01 -4.392910945E+00 -3.592574253E+00  3.264337769E+01  7.127678837E-07  0.00000E+00  9.000E+00
       5     1     3     3   502     0 -4.621944026E+01  4.483097513E+01  3.163677874E+02  3.228888235E+02  4.750000000E+00  0.00000E+00  9.000E+00
      -5     1     4     4     0   504  4.480143089E+00 -5.120073550E+01  1.237516683E+02  1.340843947E+02  4.750000000E+00  0.00000E+00  9.000E+00
      21     1     1     2   504   511 -3.180736327E+01  6.847628282E+00 -6.507486742E+01  7.275532105E+01  1.348699152E-06  0.00000E+00  9.000E+00
</event>
<event>
     13  10001  1.00000E+00  6.14654E+00 -1.00000E+00  2.32131E-01
      21    -1     0     0   512   503  0.000000000E+00  0.000000000E+00  6.970775563E+02  6.970775563E+02  0.000000000E+00  0.00000E+00  9.000E+00
      21    -1     0     0   503   504  0.000000000E+00  0.000000000E+00 -6.735193516E+01  6.735193516E+01  0.000000000E+00  0.00000E+00  9.000E+00
       6     2     1     2   502     0  5.511610567E+01  7.942120382E+01  1.654019055E+02  2.574632072E+02  1.720000000E+02  0.00000E+00  9.000E+00
      -6     2     1     2     0   504 -5.319299159E+01 -7.358326489E+01  4.279065171E+02  4.700340186E+02  1.720000000E+02  0.00000E+00  9.000E+00
      24     2     3     3     0     0  4.869582312E+01  7.555300380E+01  1.930893685E+02  2.283884568E+02  8.245146100E+01  0.00000E+00  9.000E+00
     -24     2     4     4     0     0 -5.172099754E+01 -4.321723420E+01  4.264902028E+02  4.392309176E+02  8.054262806E+01  0.00000E+00  9.000E+00
     -11     1     5     5     0     0 -1.373035158E+01  6.184892295E+00  8.168540579E+01  8.306191044E+01  2.132480600E-06  0.00000E+00  9.000E+00
      12     1     5     5     0     0  6.242617471E+01  6.936811150E+01  1.114039627E+02  1.453265464E+02  1.348699152E-06  0.00000E+00  9.000E+00
      13     1     6     6     0     0  2.034488494E+01 -2.184559127E+01  1.227948100E+02  1.263713162E+02  1.348699152E-06  0.00000E+00  9.000E+00
     -14     1     6     6     0     0 -7.206588248E+01 -2.137164293E+01  3.036953928E+02  3.128596013E+02  3.814697266E-06  0.00000E+00  9.000E+00
       5     1     3     3   502     0  6.420282543E+00  3.868200025E+00 -2.768746302E+01  2.907475035E+01  4.750000000E+00  0.00000E+00  9.000E+00
      -5     1     4     4     0   504 -1.471994046E+00 -3.036603069E+01  1.416314328E+00  3.080310103E+01  4.750000000E+00  0.00000E+00  9.000E+00
      21     1     1     2   512   502 -1.923114078E+00 -5.837938931E+00  3.641719851E+01  3.693226565E+01  4.768371582E-07  0.00000E+00  9.000E+00
</event>
<event>
     13  10001  1.00000E+00  1.45292E+01 -1.00000E+00  1.83828E-01
      21    -1     0     0   503   504  0.000000000E+00  0.000000000E+00  9.265503860E+01  9.265503860E+01  0.000000000E+00  0.00000E+00  9.000E+00
      21    -1     0     0   511   503  0.000000000E+00  0.000000000E+00 -7.761939237E+02  7.761939237E+02  0.000000000E+00  0.00000E+00  9.000E+00
       6     2     1     2   502     0 -5.666268013E+01  5.149897184E+01 -4.226398050E+01  1.929586678E+02  1.720000000E+02  0.00000E+00  9.000E+00
      -6     2     1     2     0   504  6.242878424E+01 -6.483497578E+01 -5.453418805E+02  5.788632773E+02  1.720000000E+02  0.00000E+00  9.000E+00
      24     2     3     3     0     0 -4.693952896E+01  3.485625318E+01  4.105848036E+01  1.073040430E+02  8.006298195E+01  0.00000E+00  9.000E+00
     -24     2     4     4     0     0 -2.299334801E+01 -6.176330158E+01 -2.399160586E+02  2.616663810E+02  8.103197074E+01  0.00000E+00  9.000E+00
     -11     1     5     5     0     0 -5.895422971E+00 -1.455873798E+01 -1.524158380E+01  2.188649676E+01  8.085167388E-07  0.00000E+00  9.000E+00
      12     1     5     5     0     0 -4.104410599E+01  4.941499117E+01  5.630006416E+01  8.541754628E+01  3.631483605E-06  0.00000E+00  9.000E+00
      13     1     6     6     0     0  2.925646488E+01 -3.072769894E+01 -7.928423432E+01  8.992286712E+01  1.651812370E-06  0.00000E+00  9.000E+00
     -14     1     6     6     0     0 -5.224981289E+01 -3.103560264E+01 -1.606318243E+02  1.717435139E+02  1.907348633E-06  0.00000E+00  9.000E+00
       5     1     3     3   502     0 -9.723151172E+00  1.664271866E+01 -8.332246086E+01  8.565462473E+01  4.750000000E+00  0.00000E+00  9.000E+00
      -5     1     4     4     0   504  8.542213225E+01 -3.071674200E+00 -3.054258219E+02  3.171968964E+02  4.750000000E+00  0.00000E+00  9.000E+00
      21     1     1     2   511   502 -5.766104112E+00  1.333600393E+01 -9.593302404E+01  9.702701716E+01  1.907348633E-06  0.00000E+00  9.000E+00
</event>
<event>
     13  10001  1.00000E+00  1.67702E+01 -1.00000E+00  1.77726E-01
      21    -1     0     0   512   504  0.000000000E+00  0.000000000E+00  1.622034988E+02  1.622034988E+02  0.000000000E+00  0.00000E+00  9.000E+00
      21    -1     0     0   502   503  0.000000000E+00  0.000000000E+00 -2.555414377E+02  2.555414377E+02  0.000000000E+00  0.00000E+00  9.000E+00
       6     2     1     2   502     0  1.864805940E+01  1.435791806E+01  7.401252653E+00  1.737604054E+02  1.720000000E+02  0.00000E+00  9.000E+00
      -6     2     1     2     0   504 -1.900139467E+00 -1.522114310E+01 -1.259291392E+02  2.137228154E+02  1.720000000E+02  0.00000E+00  9.000E+00
      24     2     3     3     0     0 -4.282395310E+01  3.358405021E+01 -2.619192219E+01  1.009626281E+02  8.090522911E+01  0.00000E+00  9.000E+00
     -24     2     4     4     0     0 -2.163073809E+00 -7.617940328E+01 -8.197363589E+01  1.384192472E+02  8.143850830E+01  0.00000E+00  9.000E+00
     -11     1     5     5     0     0 -4.977107390E+01  5.103723872E+01 -3.319750447E+00  7.136511947E+01  1.935086618E-06  0.00000E+00  9.000E+00
      12     1     5     5     0     0  6.947120799E+00 -1.745318852E+01 -2.287217174E+01  2.959750863E+01  3.371747881E-07  0.00000E+00  9.000E+00
      13     1     6     6     0     0 -1.443494976E+01 -4.054945157E+01  5.290431825E+00  4.336605200E+01  6.251387883E-07  0.00000E+00  9.000E+00
     -14     1     6     6     0     0  1.227187596E+01 -3.562995172E+01 -8.726406771E+01  9.505319517E+01  9.536743164E-07  0.00000E+00  9.000E+00
       5     1     3     3   502     0  6.147201250E+01 -1.922613215E+01  3.359317484E+01  7.279777726E+01  4.750000000E+00  0.00000E+00  9.000E+00
      -5     1     4     4     0   504  2.629343427E-01  6.095826018E+01 -4.395550333E+01  7.530356825E+01  4.750000000E+00  0.00000E+00  9.000E+00
      21     1     1     2   512   503 -1.674791994E+01  8.632250462E-01  2.518994766E+01  3.026171579E+01  3.371747881E-07  0.00000E+00  9.000E+00
</event>
<event>
     13  10001  1.00000E+00  1.82721E+02 -1.00000E+00  1.15076E-01
      21    -1     0     0   502   503  0.000000000E+00  0.000000000E+00  7.347628156E+01  7.347628156E+01  0.000000000E+00  0.00000E+00  9.000E+00
      21    -1     0     0   503   511  0.000000000E+00  0.000000000E+00 -1.277998741E+03  1.277998741E+03  0.000000000E+00  0.00000E+00  9.000E+00
       6     2     1     2   502     0  3.223539845E+01 -7.226494367E+01 -2.327958342E+02  3.000653986E+02  1.720000000E+02  0.00000E+00  9.000E+00
      -6     2     1     2     0   504 -8.901693179E+01 -1.014091274E+02 -5.447385927E+02  5.869684486E+02  1.720000000E+02  0.00000E+00  9.000E+00
      24     2     3     3     0     0 -2.057238130E+01 -1.200767630E+01 -4.581864462E+01  9.658903189E+01  8.162527625E+01  0.00000E+00  9.000E+00
     -24     2     4     4     0     0 -9.020529102E+01 -2.801649046E+01 -2.024538996E+02  2.368695126E+02  7.872525813E+01  0.00000E+00  9.000E+00
     -11     1     5     5     0     0 -8.881370331E+00 -1.121373709E+01 -6.907859325E+01  7.054416124E+01  9.536743164E-07  0.00000E+00  9.000E+00
      12     1     5     5     0     0 -1.169101097E+01 -7.939392105E-01  2.325994863E+01  2.604487065E+01  4.768371582E-07  0.00000E+00  9.000E+00
      13     1     6     6     0     0 -8.507755100E+01 -4.176095605E+01 -2.008809846E+02  2.221155940E+02  5.394796609E-06  0.00000E+00  9.000E+00
     -14     1     6     6     0     0 -5.127740027E+00  1.374446558E+01 -1.572915011E+00  1.475391859E+01  1.153854172E-06  0.00000E+00  9.000E+00
       5     1     3     3   502     0  5.280777975E+01 -6.025726737E+01 -1.869771896E+02  2.034763667E+02  4.750000000E+00  0.00000E+00  9.000E+00
      -5     1     4     4     0   504  1.188359238E+00 -7.339263692E+01 -3.422846931E+02  3.500989360E+02  4.750000000E+00  0.00000E+00  9.000E+00
      21     1     1     2   504   511  5.678153334E+01  1.736740711E+02 -4.269880326E+02  4.644411755E+02  7.629394531E-06  0.00000E+00  9.000E+00
</event>
<event>
     13  10001  1.00000E+00  2.60194E+01 -1.00000E+00  1.61396E-01
      21    -1     0     0   503   512  0.000000000E+00  0.000000000E+00  4.943846691E+02  4.943846691E+02  0.000000000E+00  0.00000E+00  9.000E+00
      21    -1     0     0   502   503  0.000000000E+00  0.000000000E+00 -8.039023624E+01  8.039023624E+01  0.000000000E+00  0.00000E+00  9.000E+00
       6     2     1     2   502     0 -1.409877474E+01 -3.934336338E+01  1.286192299E+02  2.188003245E+02  1.720000000E+02  0.00000E+00  9.000E+00
      -6     2     1     2     0   504  3.943790493E+01  4.525404519E+01  2.201455613E+02  2.857469949E+02  1.720000000E+02  0.00000E+00  9.000E+00
      24     2     3     3     0     0  4.769955164E+00  4.208348595E+01  5.286580241E+01  1.058954750E+02  8.139586167E+01  0.00000E+00  9.000E+00
     -24     2     4     4     0     0 -1.604258368E+01 -2.091401425E+01  5.727579493E+01  1.013414093E+02  7.933980133E+01  0.00000E+00  9.000E+00
     -11     1     5     5     0     0  2.940106239E+01  5.229615187E+01  1.928867494E+01  6.301875080E+01  1.092571186E-06  0.00000E+00  9.000E+00
      12     1     5     5     0     0 -2.463110723E+01 -1.021266592E+01  3.357712747E+01  4.287672419E+01  8.259061849E-07  0.00000E+00  9.000E+00
      13     1     6     6     0     0 -5.871898607E+00  2.600718180E+01  4.413772151E+01  5.156540660E+01  1.261592536E-06  0.00000E+00  9.000E+00
     -14     1     6     6     0     0 -1.017068507E+01 -4.692119604E+01  1.313807342E+01  4.977600271E+01  1.155776944E-06  0.00000E+00  9.000E+00
       5     1     3     3   502     0 -1.886872991E+01 -8.142684933E+01  7.575342752E+01  1.129048495E+02  4.750000000E+00  0.00000E+00  9.000E+00
      -5     1     4     4     0   504  5.548048861E+01  6.616805943E+01  1.628697664E+02  1.844055856E+02  4.750000000E+00  0.00000E+00  9.000E+00
      21     1     1     2   504   512 -2.533913018E+01 -5.910681809E+00  6.522964161E+01  7.022758591E+01  0.000000000E+00  0.00000E+00  9.000E+00
</event>
<event>
     13  10001  1.00000E+00  1.42823E+02 -1.00000E+00  1.19377E-01
      21    -1     0     0   503   504  0.000000000E+00  0.000000000E+00  2.623307480E+02  2.623307480E+02  0.000000000E+00  0.00000E+00  9.000E+00
      21    -1     0     0   502   511  0.000000000E+00  0.000000000E+00 -9.671812929E+02  9.671812929E+02  0.000000000E+00  0.00000E+00  9.000E+00
       6     2     1     2   502     0 -7.790348930E+01 -1.529429664E+02 -5.865735585E+02  6.349118397E+02  1.720000000E+02  0.00000E+00  9.000E+00
      -6     2     1     2     0   504  4.047373397E+01  2.907739194E+02  8.068065329E+01  3.496869502E+02  1.720000000E+02  0.00000E+00  9.000E+00
      24     2     3     3     0     0  2.507781423E+01 -6.514424340E+01 -2.374774842E+02  2.604730647E+02  8.110482536E+01  0.00000E+00  9.000E+00
     -24     2     4     4     0     0  3.751946767E+01  1.656744576E+02 -1.274403641E+01  1.934520688E+02  9.168181989E+01  0.00000E+00  9.000E+00
     -11     1     5     5     0     0  2.995471222E+00 -7.627833974E+01 -2.103076466E+02  2.237334668E+02  4.672030912E-06  0.00000E+00  9.000E+00
      12     1     5     5     0     0  2.208234301E+01  1.113409634E+01 -2.716983764E+01  3.673959786E+01  8.259061849E-07  0.00000E+00  9.000E+00
      13     1     6     6     0     0  4.387483101E+01  2.857456962E+01  1.267307592E+01  5.387126951E+01  1.460009660E-06  0.00000E+00  9.000E+00
     -14     1     6     6     0     0 -6.355363339E+00  1.370998880E+02 -2.541711233E+01  1.395807993E+02  3.371747881E-07  0.00000E+00  9.000E+00
       5     1     3     3   502     0 -1.029813035E+02 -8.779872302E+01 -3.490960743E+02  3.744387750E+02  4.750000000E+00  0.00000E+00  9.000E+00
      -5     1     4     4     0   504  2.954266295E+00  1.250994617E+02  9.342468970E+01  1.562348814E+02  4.750000000E+00  0.00000E+00  9.000E+00
      21     1     1     2   503   511  3.742975533E+01 -1.378309529E+02 -1.989576397E+02  2.449132511E+02  4.672030912E-06  0.00000E+00  9.000E+00
</event>
<event>
     13  10001  1.00000E+00  2.19937E+01 -1.00000E+00  1.67265E-01
      21    -1     0     0   503   504  0.000000000E+00  0.000000000E+00  4.390990339E+02  4.390990339E+02  0.000000000E+00  0.00000E+00  9.000E+00
      21    -1     0     0   502   512  0.000000000E+00  0.000000000E+00 -4.659857654E+02  4.659857654E+02  0.000000000E+00  0.00000E+00  9.000E+00
       6     2     1     2   502     0 -9.163187090E+01  6.849670940E+01  2.167673061E+02  2.994332379E+02  1.720000000E+02  0.00000E+00  9.000E+00
      -6     2     1     2     0   504  9.600963736E+01 -9.005029356E+01  1.157475225E+02  2.455776757E+02  1.720000000E+02  0.00000E+00  9.000E+00
      24     2     3     3     0     0 -1.055923608E+02  9.981638326E+01  2.041080071E+02  2.625735363E+02  7.856033595E+01  0.00000E+00  9.000E+00
     -24     2     4     4     0     0  5.781616873E+01 -2.332423659E+01  1.317798390E+02  1.668966399E+02  8.125166494E+01  0.00000E+00  9.000E+00
     -11     1     5     5     0     0 -2.356113076E+00 -2.000039184E+00  5.321890227E+01  5.330856390E+01  6.743495762E-07  0.00000E+00  9.000E+00
      12     1     5     5     0     0 -1.032362478E+02  1.018164224E+02  1.508891048E+02  2.092649724E+02  1.907348633E-06  0.00000E+00  9.000E+00
      13     1     6     6     0     0 -1.763656325E+01 -1.183554464E+01  5.352646564E+01  5.758655229E+01  0.000000000E+00  0.00000E+00  9.000E+00
     -14     1     6     6     0     0  7.545273199E+01 -1.148869195E+01  7.825337334E+01  1.093100876E+02  2.697398305E-06  0.00000E+00  9.000E+00
       5     1     3     3   502     0  1.396048994E+01 -3.131967386E+01  1.265929906E+01  3.685970161E+01  4.750000000E+00  0.00000E+00  9.000E+00
      -5     1     4     4     0   504  3.819346863E+01 -6.672605696E+01 -1.603231652E+01  7.868103581E+01  4.750000000E+00  0.00000E+00  9.000E+00
      21     1     1     2   503   512 -4.377766466E+00  2.155358415E+01 -3.594015600E+02  3.600738857E+02  6.607249480E-06  0.00000E+00  9.000E+00
</event>
<event>
     13  10001  1.00000E+00  2.38745E+00 -1.00000E+00  3.49939E-01
      -2    -1     0     0     0   511  0.000000000E+00  0.000000000E+00  1.968949706E+01  1.968949706E+01  0.000000000E+00  0.00000E+00  9.000E+00
       2    -1     0     0   502     0  0.000000000E+00  0.000000000E+00 -1.677909019E+03  1.677909019E+03  0.000000000E+00  0.00000E+00  9.000E+00
       6     2     1     2   502     0  2.537495791E+01  1.952994279E+01 -1.028375116E+03  1.043151325E+03  1.720000000E+02  0.00000E+00  9.000E+00
      -6     2     1     2     0   512 -2.770962721E+01 -2.002917185E+01 -6.209277596E+02  6.452164550E+02  1.720000000E+02  0.00000E+00  9.000E+00
      24     2     3     3     0     0  7.456085902E+01  1.902093558E+00 -4.608345546E+02  4.731909355E+02  7.731904758E+01  0.00000E+00  9.000E+00
     -24     2     4     4     0     0 -2.622840535E+01  1.666316222E+01 -1.574329286E+02  1.802449051E+02  8.208232800E+01  0.00000E+00  9.000E+00
     -11     1     5     5     0     0  7.964197709E+01 -5.429352868E-01 -2.521263707E+02  2.644065924E+02  2.697398305E-06  0.00000E+00  9.000E+00
      12     1     5     5     0     0 -5.081118071E+00  2.445028844E+00 -2.087081838E+02  2.087843431E+02  4.672030912E-06  0.00000E+00  9.000E+00
      13     1     6     6     0     0 -1.160656955E+00 -3.238151839E+01 -6.545782641E+01  7.303859867E+01  9.536743164E-07  0.00000E+00  9.000E+00
     -14     1     6     6     0     0 -2.506774839E+01  4.904468061E+01 -9.197510220E+01  1.072063064E+02  1.348699152E-06  0.00000E+00  9.000E+00
       5     1     3     3   502     0 -4.918590111E+01  1.762784923E+01 -5.675405616E+02  5.699603894E+02  4.750000000E+00  0.00000E+00  9.000E+00
      -5     1     4     4     0   512 -1.481221868E+00 -3.669233407E+01 -4.634948310E+02  4.649715499E+02  4.750000000E+00  0.00000E+00  9.000E+00
      21     1     1     2   512   511  2.334669305E+00  4.992290615E-01 -8.916646163E+00  9.230736115E+00  1.685873940E-07  0.00000E+00  9.000E+00
</event>
<event>
     13  10001  1.00000E+00  2.36730E+01 -1.00000E+00  1.64642E-01
      21    -1     0     0   513   503  0.000000000E+00  0.000000000E+00  1.116413911E+02  1.116413911E+02  0.000000000E+00  0.00000E+00  9.000E+00
      21    -1     0     0   503   504  0.000000000E+00  0.000000000E+00 -9.156589028E+02  9.156589028E+02  0.000000000E+00  0.00000E+00  9.000E+00
       6     2     1     2   502     0 -6.156504138E+01  1.142276550E+02 -3.162096354E+02  3.826365704E+02  1.720000000E+02  0.00000E+00  9.000E+00
      -6     2     1     2     0   504  5.873903315E+01 -1.377313481E+02 -5.406416869E+02  5.867688061E+02  1.720000000E+02  0.00000E+00  9.000E+00
      24     2     3     3     0     0  1.550213200E+01  1.658477210E+01 -1.773315498E+02  1.961341121E+02  8.066437014E+01  0.00000E+00  9.000E+00
     -24     2     4     4     0     0  7.631616657E+01 -9.414491134E+01 -2.234774497E+02  2.661062905E+02  7.863183650E+01  0.00000E+00  9.000E+00
     -11     1     5     5     0     0 -1.892093792E+01 -9.787612737E+00 -1.308213212E+02  1.325443976E+02  1.907348633E-06  0.00000E+00  9.000E+00
      12     1     5     5     0     0  3.442306992E+01  2.637238483E+01 -4.651022861E+01  6.358971450E+01  1.348699152E-06  0.00000E+00  9.000E+00
      13     1     6     6     0     0  3.769910162E+01 -6.060784110E+01 -1.948082518E+02  2.074723780E+02  2.697398305E-06  0.00000E+00  9.000E+00
     -14     1     6     6     0     0  3.861706495E+01 -3.353707024E+01 -2.866919788E+01  5.863391248E+01  2.050954167E-06  0.00000E+00  9.000E+00
       5     1     3     3   502     0 -7.706717338E+01  9.764288286E+01 -1.388780855E+02  1.865024582E+02  4.750000000E+00  0.00000E+00  9.000E+00
      -5     1     4     4     0   504 -1.757713342E+01 -4.358643677E+01 -3.171642372E+02  3.206625156E+02  4.750000000E+00  0.00000E+00  9.000E+00
      21     1     1     2   513   502  2.826008230E+00  2.350369315E+01  5.283381057E+01  5.789491734E+01  0.000000000E+00  0.00000E+00  9.000E+00
</event>
<event>
     13  10001  1.00000E+00  1.26333E+01 -1.00000E+00  1.90209E-01
      21    -1     0     0   502   503  0.000000000E+00  0.000000000E+00  3.958094947E+02  3.958094947E+02  0.000000000E+00  0.00000E+00  9.000E+00
      21    -1     0     0   503   511  0.000000000E+00  0.000000000E+00 -1.412420493E+02  1.412420493E+02  0.000000000E+00  0.00000E+00  9.000E+00
       6     2     1     2   502     0  1.346708258E+02 -1.258101313E+01  2.102346123E+02  3.034420956E+02  1.720000000E+02  0.00000E+00  9.000E+00
      -6     2     1     2     0   504 -1.289546473E+02  2.384714544E+01  4.513547572E+01  2.209506700E+02  1.720000000E+02  0.00000E+00  9.000E+00
      24     2     3     3     0     0  1.304585154E+02 -7.365611569E+00  7.950778833E+01  1.724573295E+02  7.966407975E+01  0.00000E+00  9.000E+00
     -24     2     4     4     0     0 -1.114361421E+01  2.558815023E+01  5.713781455E+01  1.024218159E+02  8.029050349E+01  0.00000E+00  9.000E+00
     -11     1     5     5     0     0  7.272767873E+01  1.595141308E+01  8.120464780E+01  1.101723997E+02  1.651812370E-06  0.00000E+00  9.000E+00
      12     1     5     5     0     0  5.773083668E+01 -2.331702465E+01 -1.696859464E+00  6.228492976E+01  3.576278687E-07  0.00000E+00  9.000E+00
      13     1     6     6     0     0  7.867490308E+00  3.084255438E+01 -9.265327920E+00  3.315127246E+01  1.168007728E-06  0.00000E+00  9.000E+00
     -14     1     6     6     0     0 -1.901110452E+01 -5.254404152E+00  6.640314247E+01  6.927054343E+01  1.348699152E-06  0.00000E+00  9.000E+00
       5     1     3     3   502     0  4.212310351E+00 -5.215401557E+00  1.307268239E+02  1.309847662E+02  4.750000000E+00  0.00000E+00  9.000E+00
      -5     1     4     4     0   504 -1.178110331E+02 -1.741004792E+00 -1.200233882E+01  1.185288541E+02  4.750000000E+00  0.00000E+00  9.000E+00
      21     1     1     2   504   511 -5.716178435E+00 -1.126613231E+01 -8.026425769E-01  1.265877831E+01  2.138718977E-07  0.00000E+00  9.000E+00
</event>
<event>
     13  10001  1.00000E+00  1.94844E+01 -1.00000E+00  1.71777E-01
       2    -1     0     0   502     0  0.000000000E+00  0.000000000E+00  1.195593431E+03  1.195593431E+03  0.000000000E+00  0.00000E+00  9.000E+00
      21    -1     0     0   513   512  0.000000000E+00  0.000000000E+00 -3.844322524E+01  3.844322524E+01  0.000000000E+00  0.00000E+00  9.000E+00
       6     2     1     2   502     0 -9.104034983E+01  2.954677839E+01  5.907618252E+02  6.226916505E+02  1.720000000E+02  0.00000E+00  9.000E+00
      -6     2     1     2     0   512  7.176277872E+01 -2.671564470E+01  3.814617265E+02  4.253947236E+02  1.720000000E+02  0.00000E+00  9.000E+00
      24     2     3     3     0     0 -7.324024489E+00 -2.205152675E+01  3.885909171E+02  3.978218063E+02  8.197180947E+01  0.00000E+00  9.000E+00
     -24     2     4     4     0     0 -2.295073983E+01 -1.530688141E+01  1.195790750E+02  1.466369503E+02  8.026333508E+01  0.00000E+00  9.000E+00
     -11     1     5     5     0     0 -3.816281666E+01 -2.992869903E+01  2.951640736E+02  2.991219784E+02  0.000000000E+00  0.00000E+00  9.000E+00
      12     1     5     5     0     0  3.083879217E+01  7.877172284E+00  9.342684345E+01  9.869982788E+01  0.000000000E+00  0.00000E+00  9.000E+00
      13     1     6     6     0     0 -2.563941968E+01  2.571819895E+01  8.668402138E+01  9.398364305E+01  9.536743164E-07  0.00000E+00  9.000E+00
     -14     1     6     6     0     0  2.688679847E+00 -4.102508037E+01  3.289505359E+01  5.265330729E+01  1.907348633E-06  0.00000E+00  9.000E+00
       5     1     3     3   502     0 -8.371632535E+01  5.159830514E+01  2.021709082E+02  2.248698442E+02  4.750000000E+00  0.00000E+00  9.000E+00
      -5     1     4     4     0   512  9.471351855E+01 -1.140876328E+01  2.618826515E+02  2.787577732E+02  4.750000000E+00  0.00000E+00  9.000E+00
       2     1     1     2   513     0  1.927757111E+01 -2.831133694E+00  1.849266542E+02  1.859502823E+02  0.000000000E+00  0.00000E+00  9.000E+00
</event>
<event>
     13  10001  1.00000E+00  1.98654E+01 -1.00000E+00  1.71039E-01
       1    -1     0     0   502     0  0.000000000E+00  0.000000000E+00  3.813066325E+02  3.813066325E+02  0.000000000E+00  0.00000E+00  9.000E+00
      21    -1     0     0   503   504  0.000000000E+00  0.000000000E+00 -1.832558751E+02  1.832558751E+02  0.000000000E+00  0.00000E+00  9.000E+00
       6     2     1     2   502     0 -3.779044878E+01 -3.571630088E+01 -9.531029614E+01  2.034006507E+02  1.720000000E+02  0.00000E+00  9.000E+00
      -6     2     1     2     0   504  4.195362131E+01  1.629207845E+01  2.085184097E+02  2.740245707E+02  1.720000000E+02  0.00000E+00  9.000E+00
      24     2     3     3     0     0 -2.308663872E+01  5.124468120E+00 -1.229814540E+02  1.517051391E+02  8.561984665E+01  0.00000E+00  9.000E+00
     -24     2     4     4     0     0  1.032979975E+02  9.898978026E+00  1.395502614E+02  1.813791596E+02  5.153307698E+01  0.00000E+00  9.000E+00
     -11     1     5     5     0     0 -4.313704292E+01  1.351052971E+01 -2.564364962E+01  5.197052676E+01  6.743495762E-07  0.00000E+00  9.000E+00
      12     1     5     5     0     0  2.005040421E+01 -8.386061588E+00 -9.733780440E+01  9.973461236E+01  1.907348633E-06  0.00000E+00  9.000E+00
      13     1     6     6     0     0  3.537207177E+01 -1.326535746E+01  2.218378632E+01  4.380951433E+01  5.840038640E-07  0.00000E+00  9.000E+00
     -14     1     6     6     0     0  6.792592571E+01  2.316433548E+01  1.173664751E+02  1.375696453E+02  1.907348633E-06  0.00000E+00  9.000E+00
       5     1     3     3   502     0 -1.470381006E+01 -4.084076900E+01  2.767115788E+01  5.169551162E+01  4.750000000E+00  0.00000E+00  9.000E+00
      -5     1     4     4     0   504 -6.134437617E+01  6.393100424E+00  6.896814822E+01  9.264541106E+01  4.750000000E+00  0.00000E+00  9.000E+00
       1     1     1     2   503     0 -4.163172527E+00  1.942422243E+01  8.484264390E+01  8.713728620E+01  0.000000000E+00  0.00000E+00  9.000E+00
</event>
<event>
     13  10001  1.00000E+00  9.03976E+00 -1.00000E+00  2.07540E-01
      21    -1     0     0   503   504  0.000000000E+00  0.000000000E+00  1.437891076E+02  1.437891076E+02  0.000000000E+00  0.00000E+00  9.000E+00
       2    -1     0     0   502     0  0.000000000E+00  0.000000000E+00 -1.606784244E+03  1.606784244E+03  0.000000000E+00  0.00000E+00  9.000E+00
       6     2     1     2   502     0 -7.223786392E+01 -1.899974812E+01 -7.880150338E+02  8.100191312E+02  1.720000000E+02  0.00000E+00  9.000E+00
      -6     2     1     2     0   504  7.727950390E+01  1.149647311E+01  6.555468138E+01  1.999642640E+02  1.720000000E+02  0.00000E+00  9.000E+00
      24     2     3     3     0     0 -5.016586573E+01 -7.067161371E+01 -3.693205639E+02  3.875445445E+02  7.925909393E+01  0.00000E+00  9.000E+00
     -24     2     4     4     0     0  9.057094217E+01  5.940968254E+01  2.820192693E+01  1.375933674E+02  8.002487198E+01  0.00000E+00  9.000E+00
     -11     1     5     5     0     0 -6.325942780E+01 -7.116693870E+01 -2.502091548E+02  2.677146046E+02  2.697398305E-06  0.00000E+00  9.000E+00
      12     1     5     5     0     0  1.309356206E+01  4.953249901E-01 -1.191114092E+02  1.198299400E+02  2.336015456E-06  0.00000E+00  9.000E+00
      13     1     6     6     0     0  2.073357766E+00  4.125963941E+01 -4.412714464E+00  4.154670511E+01  6.848052319E-07  0.00000E+00  9.000E+00
     -14     1     6     6     0     0  8.849758440E+01  1.815004313E+01  3.261464140E+01  9.604666233E+01  3.126830351E-06  0.00000E+00  9.000E+00
       5     1     3     3   502     0 -2.207199819E+01  5.167186558E+01 -4.186944699E+02  4.224745867E+02  4.750000000E+00  0.00000E+00  9.000E+00
      -5     1     4     4     0   504 -1.329143827E+01 -4.791320943E+01  3.735275444E+01  6.237089653E+01  4.750000000E+00  0.00000E+00  9.000E+00
       2     1     1     2   503     0 -5.041639976E+00  7.503275016E+00 -7.405347835E+02  7.405899559E+02  0.000000000E+00  0.00000E+00  9.000E+00
</event>
<event>
     13  10001  1.00000E+00  2.98870E+01 -1.00000E+00  1.56866E-01
      21    -1     0     0   511   504  0.000000000E+00  0.000000000E+00  2.582203311E+02  2.582203311E+02  0.000000000E+00  0.00000E+00  9.000E+00
      21    -1     0     0   502   503  0.000000000E+00  0.000000000E+00 -3.210243597E+02  3.210243597E+02  0.000000000E+00  0.00000E+00  9.000E+00
       6     2     1     2   502     0 -6.165747625E+01  1.088599306E+02 -9.540710265E+01  2.331065080E+02  1.720000000E+02  0.00000E+00  9.000E+00
      -6     2     1     2     0   504  3.304909121E+01 -1.002115644E+02 -8.927074899E+01  2.206532726E+02  1.720000000E+02  0.00000E+00  9.000E+00
      24     2     3     3     0     0 -5.600104233E+00  2.356256771E+01  1.263396597E+01  8.440040839E+01  7.985772396E+01  0.00000E+00  9.000E+00
     -24     2     4     4     0     0  5.596280395E+01 -2.082282664E+00 -2.877818825E+01  1.030254418E+02  8.154683446E+01  0.00000E+00  9.000E+00
     -11     1     5     5     0     0 -3.262074375E+01  1.038345282E+01 -2.030691172E+01  3.980326216E+01  5.840038640E-07  0.00000E+00  9.000E+00
      12     1     5     5     0     0  2.702063951E+01  1.317911489E+01  3.294087769E+01  4.459714623E+01  4.768371582E-07  0.00000E+00  9.000E+00
      13     1     6     6     0     0 -2.121682990E+01 -2.788666871E+00 -2.767102717E+00  2.157747417E+01  4.460403188E-07  0.00000E+00  9.000E+00
     -14     1     6     6     0     0  7.717963385E+01  7.063842072E-01 -2.601108553E+01  8.144796763E+01  1.348699152E-06  0.00000E+00  9.000E+00
       5     1     3     3   502     0 -5.605737202E+01  8.529736284E+01 -1.080410686E+02  1.487060997E+02  4.750000000E+00  0.00000E+00  9.000E+00
      -5     1     4     4     0   504 -2.291371274E+01 -9.812928176E+01 -6.049256075E+01  1.176278308E+02  4.750000000E+00  0.00000E+00  9.000E+00
      21     1     1     2   511   503  2.860838504E+01 -8.648366128E+00  1.218738231E+02  1.254849102E+02  1.907348633E-06  0.00000E+00  9.000E+00
</event>
<event>
     13  10001  1.00000E+00  2.47961E+01 -1.00000E+00  1.63033E-01
      21    -1     0     0   503   504  0.000000000E+00  0.000000000E+00  6.251902797E+02  6.251902797E+02  0.000000000E+00  0.00000E+00  9.000E+00
      21    -1     0     0   502   512  0.000000000E+00  0.000000000E+00 -2.101277350E+02  2.101277350E+02  0.000000000E+00  0.00000E+00  9.000E+00
       6     2     1     2   502     0  1.546531635E+02  4.217605217E+00  3.027657175E+02  3.810334223E+02  1.720000000E+02  0.00000E+00  9.000E+00
      -6     2     1     2     0   504 -1.773322404E+02  5.807618939E+00  2.278354001E+02  3.361151908E+02  1.720000000E+02  0.00000E+00  9.000E+00
      24     2     3     3     0     0  1.702381051E+02  3.321629034E+01  2.125202702E+02  2.848532923E+02  7.676065724E+01  0.00000E+00  9.000E+00
     -24     2     4     4     0     0 -1.606056323E+02  2.655614692E+01  1.038697085E+02  2.092280912E+02  8.054861729E+01  0.00000E+00  9.000E+00
     -11     1     5     5     0     0  3.515322764E+01  4.060402768E+01  7.160827570E+01  8.951079056E+01  2.336015456E-06  0.00000E+00  9.000E+00
      12     1     5     5     0     0  1.350848775E+02 -7.387737340E+00  1.409119945E+02  1.953425018E+02  3.814697266E-06  0.00000E+00  9.000E+00
      13     1     6     6     0     0 -1.076654249E+01  2.973500110E+01  2.112139676E+01  3.802896434E+01  7.907449699E-07  0.00000E+00  9.000E+00
     -14     1     6     6     0     0 -1.498390898E+02 -3.178854186E+00  8.274831172E+01  1.711991269E+02  2.861022949E-06  0.00000E+00  9.000E+00
       5     1     3     3   502     0 -1.558494158E+01 -2.899868513E+01  9.024544731E+01  9.618012998E+01  4.750000000E+00  0.00000E+00  9.000E+00
      -5     1     4     4     0   504 -1.672660809E+01 -2.074852798E+01  1.239656916E+02  1.268870995E+02  4.750000000E+00  0.00000E+00  9.000E+00
      21     1     1     2   503   512  2.267907683E+01 -1.002522416E+01 -1.155385730E+02  1.181694017E+02  2.336015456E-06  0.00000E+00  9.000E+00
</event>
<event>
     13  10001  1.00000E+00  3.11104E+01 -1.00000E+00  1.55604E-01
      21    -1     0     0   503   504  0.000000000E+00  0.000000000E+00  3.128000099E+02  3.128000099E+02  0.000000000E+00  0.00000E+00  9.000E+00
      21    -1     0     0   502   511  0.000000000E+00  0.000000000E+00 -7.703598316E+02  7.703598316E+02  0.000000000E+00  0.00000E+00  9.000E+00
       6     2     1     2   502     0  8.980789485E+01 -5.380124395E+01 -3.055196850E+02  3.659047823E+02  1.720000000E+02  0.00000E+00  9.000E+00
      -6     2     1     2     0   504 -1.206464484E+02  5.790473235E+01  2.398864248E+02  3.240956963E+02  1.720000000E+02  0.00000E+00  9.000E+00
      24     2     3     3     0     0  4.171624033E+01 -9.673530730E+01 -2.377024767E+02  2.722144559E+02  8.062430268E+01  0.00000E+00  9.000E+00
     -24     2     4     4     0     0 -2.236441307E+01  2.767795376E+01  8.079051378E+01  1.346040394E+02  1.016115358E+02  0.00000E+00  9.000E+00
     -11     1     5     5     0     0  3.030691260E+01 -2.670760070E+01 -1.678714527E+02  1.726633416E+02  1.907348633E-06  0.00000E+00  9.000E+00
      12     1     5     5     0     0  1.140932773E+01 -7.002770661E+01 -6.983102398E+01  9.955111432E+01  2.132480600E-06  0.00000E+00  9.000E+00
      13     1     6     6     0     0 -2.593359202E+01 -2.182939516E+01 -6.189038284E+00  3.445834998E+01  8.429369702E-08  0.00000E+00  9.000E+00
     -14     1     6     6     0     0  3.569178953E+00  4.950734893E+01  8.697955207E+01  1.001456894E+02  0.000000000E+00  0.00000E+00  9.000E+00
       5     1     3     3   502     0  4.809165452E+01  4.293406335E+01 -6.781720828E+01  9.369032645E+01  4.750000000E+00  0.00000E+00  9.000E+00
      -5     1     4     4     0   504 -9.828203534E+01  3.022677859E+01  1.590959111E+02  1.894916569E+02  4.750000000E+00  0.00000E+00  9.000E+00
      21     1     1     2   503   511  3.083855355E+01 -4.103488396E+00 -3.919265615E+02  3.931593629E+02  0.000000000E+00  0.00000E+00  9.000E+00
</event>
<event>
     13  10001  1.00000E+00  4.97688E+01 -1.00000E+00  1.42233E-01
      21    -1     0     0   502   503  0.000000000E+00  0.000000000E+00  1.136857453E+02  1.136857453E+02  0.000000000E+00  0.00000E+00  9.000E+00
       1    -1     0     0   503     0  0.000000000E+00  0.000000000E+00 -1.524121196E+03  1.524121196E+03  0.000000000E+00  0.00000E+00  9.000E+00
       6     2     1     2   502     0 -1.811410837E+01 -6.451667850E+01 -2.124708685E+02  2.814576215E+02  1.720000000E+02  0.00000E+00  9.000E+00
      -6     2     1     2     0   504 -3.115636254E+01  7.154181135E+01 -3.471634642E+01  1.920369090E+02  1.720000000E+02  0.00000E+00  9.000E+00
      24     2     3     3     0     0  4.367868055E+01 -5.299456784E+01 -7.236191338E+01  1.278210711E+02  7.991075249E+01  0.00000E+00  9.000E+00
     -24     2     4     4     0     0 -4.127451243E+01  1.119118666E+02 -1.303728117E+01  1.448705789E+02  8.117673728E+01  0.00000E+00  9.000E+00
     -11     1     5     5     0     0  4.782916228E+01  4.057827050E+00 -3.655263491E+01  6.033398581E+01  6.743495762E-07  0.00000E+00  9.000E+00
      12     1     5     5     0     0 -4.150481733E+00 -5.705239489E+01 -3.580927846E+01  6.748708532E+01  1.581489940E-06  0.00000E+00  9.000E+00
      13     1     6     6     0     0  8.852607708E+00  2.407122202E+01  2.594397245E+01  3.648125682E+01  1.305872339E-06  0.00000E+00  9.000E+00
     -14     1     6     6     0     0 -5.012712013E+01  8.784064460E+01 -3.898125362E+01  1.083893221E+02  9.536743164E-07  0.00000E+00  9.000E+00
       5     1     3     3   502     0 -6.179278892E+01 -1.152211067E+01 -1.401089551E+02  1.536365503E+02  4.750000000E+00  0.00000E+00  9.000E+00
      -5     1     4     4     0   504  1.011814988E+01 -4.037005526E+01 -2.167906525E+01  4.716633004E+01  4.750000000E+00  0.00000E+00  9.000E+00
       1     1     1     2   504     0  4.927047091E+01 -7.025132846E+00 -1.163248236E+03  1.164312410E+03  0.000000000E+00  0.00000E+00  9.000E+00
</event>
<event>
     13  10001  1.00000E+00  7.72521E+01 -1.00000E+00  1.31691E-01
      21    -1     0     0   502   511  0.000000000E+00  0.000000000E+00  3.087586877E+02  3.087586877E+02  0.000000000E+00  0.00000E+00  9.000E+00
      21    -1     0     0   503   504  0.000000000E+00  0.000000000E+00 -3.313791526E+02  3.313791526E+02  0.000000000E+00  0.00000E+00  9.000E+00
       6     2     1     2   502     0 -2.546621796E+01  9.978042600E+01 -2.042411787E+02  2.861872128E+02  1.720000000E+02  0.00000E+00  9.000E+00
      -6     2     1     2     0   504 -5.083932718E+01 -1.118366435E+02  1.784667676E+02  2.766341612E+02  1.720000000E+02  0.00000E+00  9.000E+00
      24     2     3     3     0     0  1.971018032E+01  6.639035002E+01 -2.042595318E+02  2.298102053E+02  7.933854263E+01  0.00000E+00  9.000E+00
     -24     2     4     4     0     0 -3.390996262E+01 -1.482215455E+02  1.482844024E+02  2.261960591E+02  7.782596627E+01  0.00000E+00  9.000E+00
     -11     1     5     5     0     0 -1.192951989E+01  6.432218067E+01 -1.743614823E+02  1.862299194E+02  3.303624740E-06  0.00000E+00  9.000E+00
      12     1     5     5     0     0  3.163970022E+01  2.068169345E+00 -2.989804945E+01  4.358028586E+01  4.768371582E-07  0.00000E+00  9.000E+00
      13     1     6     6     0     0 -5.748092569E+01 -9.246922048E+01  8.108754504E+01  1.357564124E+02  4.046097457E-06  0.00000E+00  9.000E+00
     -14     1     6     6     0     0  2.357096307E+01 -5.575232503E+01  6.719685737E+01  9.043964665E+01  1.651812370E-06  0.00000E+00  9.000E+00
       5     1     3     3   502     0 -4.517639828E+01  3.339007598E+01  1.835307260E-02  5.637700748E+01  4.750000000E+00  0.00000E+00  9.000E+00
      -5     1     4     4     0   504 -1.692936455E+01  3.638490202E+01  3.018236516E+01  5.043810212E+01  4.750000000E+00  0.00000E+00  9.000E+00
      21     1     1     2   503   511  7.630554513E+01  1.205621749E+01  3.153946272E+00  7.731646639E+01  1.320078051E-06  0.00000E+00  9.000E+00
</event>
<event>
     13  10001  1.00000E+00  3.18526E+01 -1.00000E+00  1.54871E-01
       2    -1     0     0   502     0  0.000000000E+00  0.000000000E+00  1.196370165E+03  1.196370165E+03  0.000000000E+00  0.00000E+00  9.000E+00
      21    -1     0     0   503   504  0.000000000E+00  0.000000000E+00 -5.443356967E+01  5.443356967E+01  0.000000000E+00  0.00000E+00  9.000E+00
       6     2     1     2   502     0 -5.106673465E+01 -2.088975739E+01  5.568096848E+02  5.853761342E+02  1.720000000E+02  0.00000E+00  9.000E+00
      -6     2     1     2     0   504  3.432524499E+01 -6.208380186E+00  1.550779445E+02  2.342006305E+02  1.720000000E+02  0.00000E+00  9.000E+00
      24     2     3     3     0     0 -9.275833803E+01 -4.705698338E+01  4.149704152E+02  4.351634369E+02  7.967623477E+01  0.00000E+00  9.000E+00
     -24     2     4     4     0     0  7.220656366E+01 -4.656040723E+01  8.293058404E+01  1.431452379E+02  7.893933116E+01  0.00000E+00  9.000E+00
     -11     1     5     5     0     0 -1.230853880E+01 -6.076351218E+00  3.864864154E+00  1.426041186E+01  1.241723696E-06  0.00000E+00  9.000E+00
      12     1     5     5     0     0 -8.044979923E+01 -4.098063216E+01  4.111055510E+02  4.209030251E+02  0.000000000E+00  0.00000E+00  9.000E+00
      13     1     6     6     0     0  6.110544184E+01  6.558112194E+00  5.310973910E+01  8.122517002E+01  2.431401974E-06  0.00000E+00  9.000E+00
     -14     1     6     6     0     0  1.110112182E+01 -5.311851943E+01  2.982084494E+01  6.192006787E+01  1.066240300E-06  0.00000E+00  9.000E+00
       5     1     3     3   502     0  4.169160338E+01  2.616722598E+01  1.418392696E+02  1.502126972E+02  4.750000000E+00  0.00000E+00  9.000E+00
      -5     1     4     4     0   504 -3.788131867E+01  4.035202705E+01  7.214736048E+01  9.105539257E+01  4.750000000E+00  0.00000E+00  9.000E+00
       2     1     1     2   503     0  1.674148966E+01  2.709813758E+01  4.300489657E+02  4.312269697E+02  9.344061824E-06  0.00000E+00  9.000E+00
</event>
<event>
     13  10001  1.00000E+00  1.33067E+02 -1.00000E+00  1.20674E-01
      21    -1     0     0   503   511  0.000000000E+00  0.000000000E+00  3.025790713E+02  3.025790713E+02  0.000000000E+00  0.00000E+00  9.000E+00
      21    -1     0     0   502   503  0.000000000E+00  0.000000000E+00 -3.515842616E+02  3.515842616E+02  0.000000000E+00  0.00000E+00  9.000E+00
       6     2     1     2   502     0 -1.828607419E+02 -9.461004208E+01 -1.549472816E+02  3.098092495E+02  1.720000000E+02  0.00000E+00  9.000E+00
      -6     2     1     2     0   504  5.487958574E+01  5.817472516E+01  3.276343930E+01  1.924928844E+02  1.720000000E+02  0.00000E+00  9.000E+00
      24     2     3     3     0     0 -4.271574642E+01 -8.717300135E+01 -5.524637731E+01  1.375920548E+02  8.034702347E+01  0.00000E+00  9.000E+00
     -24     2     4     4     0     0  3.207701959E+01  1.064696493E+02  2.130966231E+01  1.376648968E+02  7.831220014E+01  0.00000E+00  9.000E+00
     -11     1     5     5     0     0  1.597711732E+01  1.937502837E+00 -1.900110510E+01  2.490108813E+01  1.039242493E-06  0.00000E+00  9.000E+00
      12     1     5     5     0     0 -5.869286374E+01 -8.911050419E+01 -3.624527221E+01  1.126909667E+02  1.784161275E-06  0.00000E+00  9.000E+00
      13     1     6     6     0     0  5.517832599E+01  5.231418705E+01  3.348610332E+00  7.610936221E+01  1.089314633E-06  0.00000E+00  9.000E+00
     -14     1     6     6     0     0 -2.310130640E+01  5.415546222E+01  1.796105198E+01  6.155553455E+01  1.469710828E-06  0.00000E+00  9.000E+00
       5     1     3     3   502     0 -1.401449954E+02 -7.437040731E+00 -9.970090434E+01  1.722171947E+02  4.750000000E+00  0.00000E+00  9.000E+00
      -5     1     4     4     0   504  2.280256615E+01 -4.829492411E+01  1.145377699E+01  5.482798761E+01  4.750000000E+00  0.00000E+00  9.000E+00
      21     1     1     2   504   511  1.279811561E+02  3.643531692E+01  7.317865208E+01  1.518611990E+02  0.000000000E+00  0.00000E+00  9.000E+00
</event>
<event>
     13  10001  1.00000E+00  3.47735E+01 -1.00000E+00  1.52207E-01
      21    -1     0     0   512   503  0.000000000E+00  0.000000000E+00  7.900219981E+02  7.900219981E+02  0.000000000E+00  0.00000E+00  9.000E+00
      21    -1     0     0   503   504  0.000000000E+00  0.000000000E+00 -3.813700150E+02  3.813700150E+02  0.000000000E+00  0.00000E+00  9.000E+00
       6     2     1     2   502     0 -2.453540217E+02  7.943763324E+01  5.485264651E+02  6.300588992E+02  1.720000000E+02  0.00000E+00  9.000E+00
      -6     2     1     2     0   504  2.801180298E+02 -7.862598133E+01 -2.535126722E+02  4.224935864E+02  1.720000000E+02  0.00000E+00  9.000E+00
      24     2     3     3     0     0 -2.096540967E+02  4.275242465E+01  5.268449722E+02  5.742651827E+02  8.020140368E+01  0.00000E+00  9.000E+00
     -24     2     4     4     0     0  2.980324898E+02 -6.552162398E+01 -2.378015999E+02  3.948882906E+02  7.918783358E+01  0.00000E+00  9.000E+00
     -11     1     5     5     0     0 -5.300420565E+01  4.778236324E+01  1.491878088E+02  1.653771518E+02  3.814697266E-06  0.00000E+00  9.000E+00
      12     1     5     5     0     0 -1.566498911E+02 -5.029938587E+00  3.776571634E+02  4.088880308E+02  5.394796609E-06  0.00000E+00  9.000E+00
      13     1     6     6     0     0  2.583927529E+02 -3.753373602E+01 -1.702175438E+02  3.116883192E+02  4.264961200E-06  0.00000E+00  9.000E+00
     -14     1     6     6     0     0  3.963973688E+01 -2.798788796E+01 -6.758405608E+01  8.319997144E+01  1.907348633E-06  0.00000E+00  9.000E+00
       5     1     3     3   502     0 -3.569992500E+01  3.668520859E+01  2.168149287E+01  5.579371656E+01  4.750000000E+00  0.00000E+00  9.000E+00
      -5     1     4     4     0   504 -1.791446001E+01 -1.310435735E+01 -1.571107234E+01  2.760529575E+01  4.750000000E+00  0.00000E+00  9.000E+00
      21     1     1     2   512   502 -3.476400803E+01 -8.116519149E-01  1.136381902E+02  1.188395276E+02  0.000000000E+00  0.00000E+00  9.000E+00
</event>
<event>
     13  10001  1.00000E+00  1.79390E+01 -1.00000E+00  1.75002E-01
      -2    -1     0     0     0   511  0.000000000E+00  0.000000000E+00  2.615373130E+02  2.615373130E+02  0.000000000E+00  0.00000E+00  9.000E+00
       2    -1     0     0   502     0  0.000000000E+00  0.000000000E+00 -4.937528528E+02  4.937528528E+02  0.000000000E+00  0.00000E+00  9.000E+00
       6     2     1     2   502     0 -4.185672517E+00  1.374373602E+02  1.271516493E+02  2.542795504E+02  1.720000000E+02  0.00000E+00  9.000E+00
      -6     2     1     2     0   512 -1.060309076E+01 -1.272834857E+02 -4.015752557E+02  4.551485442E+02  1.720000000E+02  0.00000E+00  9.000E+00
      24     2     3     3     0     0  1.439722742E+01  1.574031367E+01  9.492123628E+01  1.269341252E+02  8.153032200E+01  0.00000E+00  9.000E+00
     -24     2     4     4     0     0  1.868369241E+01 -1.227674146E+02 -3.985264353E+02  4.249828621E+02  7.978843922E+01  0.00000E+00  9.000E+00
     -11     1     5     5     0     0  4.754416001E+01  1.126351602E+01  4.253635543E+01  6.478159829E+01  6.743495762E-07  0.00000E+00  9.000E+00
      12     1     5     5     0     0 -3.314693259E+01  4.476797654E+00  5.238488085E+01  6.215252689E+01  0.000000000E+00  0.00000E+00  9.000E+00
      13     1     6     6     0     0  1.444264045E+01 -6.396797307E+01 -3.207716732E+02  3.274064107E+02  0.000000000E+00  0.00000E+00  9.000E+00
     -14     1     6     6     0     0  4.241051965E+00 -5.879944154E+01 -7.775476209E+01  9.757645144E+01  2.697398305E-06  0.00000E+00  9.000E+00
       5     1     3     3   502     0 -1.858289994E+01  1.216970465E+02  3.223041299E+01  1.273454252E+02  4.750000000E+00  0.00000E+00  9.000E+00
      -5     1     4     4     0   512 -2.928678317E+01 -4.516071099E+00 -3.048820414E+00  3.016568203E+01  4.750000000E+00  0.00000E+00  9.000E+00
      21     1     1     2   512   511  1.478876327E+01 -1.015387446E+01  4.220806665E+01  4.586207121E+01  9.536743164E-07  0.00000E+00  9.000E+00
</event>
<event>
     13  10001  1.00000E+00  5.68454E+00 -1.00000E+00  2.37879E-01
      21    -1     0     0   502   513  0.000000000E+00  0.000000000E+00  1.163886164E+02  1.163886164E+02  0.000000000E+00  0.00000E+00  9.000E+00
      21    -1     0     0   503   504  0.000000000E+00  0.000000000E+00 -3.131376367E+02  3.131376367E+02  0.000000000E+00  0.00000E+00  9.000E+00
       6     2     1     2   502     0  3.450537178E+01 -3.024338559E+01 -7.828537405E+01  1.944682052E+02  1.720000000E+02  0.00000E+00  9.000E+00
      -6     2     1     2     0   504 -2.883998264E+01  3.070956727E+01 -1.316759087E+02  2.206747993E+02  1.720000000E+02  0.00000E+00  9.000E+00
      24     2     3     3     0     0  4.662256403E+01 -8.145410586E+01 -4.888384697E+01  1.340002260E+02  8.220702666E+01  0.00000E+00  9.000E+00
     -24     2     4     4     0     0 -4.508568866E+01  1.698182491E+01 -6.112924321E+00  9.323461954E+01  7.958784290E+01  0.00000E+00  9.000E+00
     -11     1     5     5     0     0  4.096731239E+00 -8.082601649E+01 -2.268882733E+01  8.405005077E+01  3.126830351E-06  0.00000E+00  9.000E+00
      12     1     5     5     0     0  4.252583279E+01 -6.280893729E-01 -2.619501964E+01  4.995017522E+01  1.305872339E-06  0.00000E+00  9.000E+00
      13     1     6     6     0     0 -2.322303526E+01 -1.995888130E+01 -3.103527908E+01  4.359879421E+01  3.371747881E-07  0.00000E+00  9.000E+00
     -14     1     6     6     0     0 -2.186265340E+01  3.694070621E+01  2.492235476E+01  4.963582532E+01  1.348699152E-06  0.00000E+00  9.000E+00
       5     1     3     3   502     0 -1.211719225E+01  5.121072027E+01 -2.940152708E+01  6.046797924E+01  4.750000000E+00  0.00000E+00  9.000E+00
      -5     1     4     4     0   504  1.624570602E+01  1.372774236E+01 -1.255629844E+02  1.274401798E+02  4.750000000E+00  0.00000E+00  9.000E+00
      21     1     1     2   503   513 -5.665389139E+00 -4.661816771E-01  1.321226243E+01  1.438324852E+01  1.685873940E-07  0.00000E+00  9.000E+00
</event>
<event>
     13  10001  1.00000E+00  2.31548E+01 -1.00000E+00  1.65422E-01
      21    -1     0     0   502   503  0.000000000E+00  0.000000000E+00  4.342993665E+02  4.342993665E+02  0.000000000E+00  0.00000E+00  9.000E+00
      21    -1     0     0   503   511  0.000000000E+00  0.000000000E+00 -1.939103765E+02  1.939103765E+02  0.000000000E+00  0.00000E+00  9.000E+00
       6     2     1     2   502     0  9.303715059E+00  1.325365102E+01  3.229778718E+02  3.662798439E+02  1.720000000E+02  0.00000E+00  9.000E+00
      -6     2     1     2     0   504 -3.066082621E+01 -2.219898595E+01  4.199472181E-02  1.761161066E+02  1.720000000E+02  0.00000E+00  9.000E+00
      24     2     3     3     0     0 -4.912463573E+01 -5.140941178E+00  2.671748491E+02  2.832812111E+02  8.016349223E+01  0.00000E+00  9.000E+00
     -24     2     4     4     0     0 -6.884725876E+01  1.251212964E+01  2.630037608E+01  1.180202353E+02  9.132670869E+01  0.00000E+00  9.000E+00
     -11     1     5     5     0     0 -5.248529057E+01  1.251405300E+01  8.812129343E+01  1.033279711E+02  9.536743164E-07  0.00000E+00  9.000E+00
      12     1     5     5     0     0  3.360654836E+00 -1.765499417E+01  1.790535556E+02  1.799532401E+02  0.000000000E+00  0.00000E+00  9.000E+00
      13     1     6     6     0     0 -9.032427322E+01  9.483067458E+00  1.101613650E+01  9.148638239E+01  2.277490279E-06  0.00000E+00  9.000E+00
     -14     1     6     6     0     0  2.147701446E+01  3.029062185E+00  1.528423959E+01  2.653385286E+01  0.000000000E+00  0.00000E+00  9.000E+00
       5     1     3     3   502     0  5.842835079E+01  1.839459220E+01  5.580302273E+01  8.299863279E+01  4.750000000E+00  0.00000E+00  9.000E+00
      -5     1     4     4     0   504  3.818643255E+01 -3.471111559E+01 -2.625838136E+01  5.809587135E+01  4.750000000E+00  0.00000E+00  9.000E+00
      21     1     1     2   504   511  2.135711115E+01  8.945334933E+00 -8.263087657E+01  8.581379246E+01  1.348699152E-06  0.00000E+00  9.000E+00
</event>
<event>
     13  10001  1.00000E+00  5.62427E+01 -1.00000E+00  1.39131E-01
      21    -1     0     0   503   504  0.000000000E+00  0.000000000E+00  2.154415281E+02  2.154415281E+02  0.000000000E+00  0.00000E+00  9.000E+00
      21    -1     0     0   512   503  0.000000000E+00  0.000000000E+00 -7.483721263E+02  7.483721263E+02  0.000000000E+00  0.00000E+00  9.000E+00
       6     2     1     2   502     0  1.962155919E+02 -1.872250840E+01 -5.586934246E+02  6.169063410E+02  1.720000000E+02  0.00000E+00  9.000E+00
      -6     2     1     2     0   504 -1.964245919E+02  7.496482432E+01  6.377659701E+01  2.790229372E+02  1.720000000E+02  0.00000E+00  9.000E+00
      24     2     3     3     0     0  1.095332063E+02  2.022738923E+01 -1.800871041E+02  2.265267322E+02  8.047561607E+01  0.00000E+00  9.000E+00
     -24     2     4     4     0     0 -1.504528821E+02  8.122834145E+01  9.926620294E+01  2.204165863E+02  9.744526292E+01  0.00000E+00  9.000E+00
     -11     1     5     5     0     0 -1.143367636E+01 -4.258120822E+00 -7.402066471E+00  1.427063895E+01  4.915124924E-07  0.00000E+00  9.000E+00
      12     1     5     5     0     0  1.209668827E+02  2.448551005E+01 -1.726850376E+02  2.122560932E+02  3.303624740E-06  0.00000E+00  9.000E+00
      13     1     6     6     0     0 -6.282798973E+01  9.273463343E+00 -8.396815162E+00  6.406137621E+01  1.374788594E-06  0.00000E+00  9.000E+00
     -14     1     6     6     0     0 -8.762489241E+01  7.195487811E+01  1.076630181E+02  1.563552101E+02  3.303624740E-06  0.00000E+00  9.000E+00
       5     1     3     3   502     0  8.668238559E+01 -3.894989763E+01 -3.786063205E+02  3.903796088E+02  4.750000000E+00  0.00000E+00  9.000E+00
      -5     1     4     4     0   504 -4.597170970E+01 -6.263517136E+00 -3.548960593E+01  5.860635093E+01  4.750000000E+00  0.00000E+00  9.000E+00
      21     1     1     2   512   502  2.089999334E-01 -5.624231592E+01 -3.801377056E+01  6.788437620E+01  6.743495762E-07  0.00000E+00  9.000E+00
</event>
<event>
     13  10001  1.00000E+00  4.62067E+01 -1.00000E+00  1.44187E-01
      -2    -1     0     0     0   511  0.000000000E+00  0.000000000E+00  1.894027836E+02  1.894027836E+02  0.000000000E+00  0.00000E+00  9.000E+00
       2    -1     0     0   502     0  0.000000000E+00  0.000000000E+00 -3.184603265E+02  3.184603265E+02  0.000000000E+00  0.00000E+00  9.000E+00
       6     2     1     2   502     0  1.238486314E+02 -5.029687307E+01 -4.071938471E+01  2.216084999E+02  1.720000000E+02  0.00000E+00  9.000E+00
      -6     2     1     2     0   512 -1.027908868E+02  9.167398373E+00 -1.166761999E+02  2.320503032E+02  1.720000000E+02  0.00000E+00  9.000E+00
      24     2     3     3     0     0  1.436115246E+02 -7.558048899E+01 -1.828249170E+01  1.821647443E+02  8.070355793E+01  0.00000E+00  9.000E+00
     -24     2     4     4     0     0 -8.056887269E+01  6.543162339E+01 -1.129568900E+02  1.712565807E+02  7.613748652E+01  0.00000E+00  9.000E+00
     -11     1     5     5     0     0  3.163016639E+01 -2.259689334E+01  3.010482061E+01  4.916693236E+01  7.539457465E-07  0.00000E+00  9.000E+00
      12     1     5     5     0     0  1.119813582E+02 -5.298359566E+01 -4.838731231E+01  1.329978120E+02  1.507891493E-06  0.00000E+00  9.000E+00
      13     1     6     6     0     0 -2.568584882E+01  3.763643671E+01 -9.780441230E+01  1.078979484E+02  2.336015456E-06  0.00000E+00  9.000E+00
     -14     1     6     6     0     0 -5.488302387E+01  2.779518669E+01 -1.515247770E+01  6.335863234E+01  1.066240300E-06  0.00000E+00  9.000E+00
       5     1     3     3   502     0 -1.976289324E+01  2.528361592E+01 -2.243689302E+01  3.944375555E+01  4.750000000E+00  0.00000E+00  9.000E+00
      -5     1     4     4     0   512 -2.222201412E+01 -5.626422502E+01 -3.719309867E+00  6.079372249E+01  4.750000000E+00  0.00000E+00  9.000E+00
      21     1     1     2   512   511 -2.105774455E+01  4.112947469E+01  2.833804168E+01  5.420430703E+01  1.348699152E-06  0.00000E+00  9.000E+00
</event>
<event>
     13  10001  1.00000E+00  4.79686E+01 -1.00000E+00  1.43196E-01
      21    -1     0     0   503   513  0.000000000E+00  0.000000000E+00  2.125935392E+02  2.125935392E+02  0.000000000E+00  0.00000E+00  9.000E+00
      21    -1     0     0   502   503  0.000000000E+00  0.000000000E+00 -2.968107010E+02  2.968107010E+02  0.000000000E+00  0.00000E+00  9.000E+00
       6     2     1     2   502     0 -6.676604419E+01  7.470763825E+01  7.425319778E+01  2.124534614E+02  1.720000000E+02  0.00000E+00  9.000E+00
      -6     2     1     2     0   504  3.868028289E+01 -3.582096437E+01 -1.701104374E+02  2.475901183E+02  1.720000000E+02  0.00000E+00  9.000E+00
      24     2     3     3     0     0  6.217197161E+00 -8.471959756E+00  4.143931908E+00  8.136848625E+01  8.058058538E+01  0.00000E+00  9.000E+00
     -24     2     4     4     0     0  1.306668257E+01  4.084057881E+01 -4.477013578E+01  9.837281892E+01  7.638164291E+01  0.00000E+00  9.000E+00
     -11     1     5     5     0     0 -2.935740918E+01 -1.134794944E+01 -2.088780135E+01  3.777477566E+01  7.152557373E-07  0.00000E+00  9.000E+00
      12     1     5     5     0     0  3.557460634E+01  2.875989688E+00  2.503173326E+01  4.359371059E+01  1.066240300E-06  0.00000E+00  9.000E+00
      13     1     6     6     0     0 -3.180274928E+01  1.130971679E+01 -1.985458440E+01  3.916029976E+01  1.118282261E-06  0.00000E+00  9.000E+00
     -14     1     6     6     0     0  4.486943184E+01  2.953086202E+01 -2.491555138E+01  5.921251917E+01  1.168007728E-06  0.00000E+00  9.000E+00
       5     1     3     3   502     0 -7.298324135E+01  8.317959801E+01  7.010926587E+01  1.310849751E+02  4.750000000E+00  0.00000E+00  9.000E+00
      -5     1     4     4     0   504  2.561360032E+01 -7.666154318E+01 -1.253403017E+02  1.492172994E+02  4.750000000E+00  0.00000E+00  9.000E+00
      21     1     1     2   504   513  2.808576131E+01 -3.888667389E+01  1.164007780E+01  4.936066050E+01  9.233911863E-07  0.00000E+00  9.000E+00
</event>
<event>
     13  10001  1.00000E+00  3.60939E+00 -1.00000E+00  2.87246E-01
       2    -1     0     0   511     0  0.000000000E+00  0.000000000E+00  1.757587409E+02  1.757587409E+02  0.000000000E+00  0.00000E+00  9.000E+00
      -2    -1     0     0     0   512  0.000000000E+00  0.000000000E+00 -7.737019154E+02  7.737019154E+02  0.000000000E+00  0.00000E+00  9.000E+00
       6     2     1     2   502     0 -7.071695452E+01 -3.154433186E+02 -3.058549111E+02  4.771127766E+02  1.720000000E+02  0.00000E+00  9.000E+00
      -6     2     1     2     0   512  6.779421873E+01  3.175611791E+02 -2.904359376E+02  4.683782579E+02  1.720000000E+02  0.00000E+00  9.000E+00
      24     2     3     3     0     0  1.254730368E+01 -2.049476955E+02 -2.316077030E+02  3.200222618E+02  8.130883865E+01  0.00000E+00  9.000E+00
     -24     2     4     4     0     0  7.222911983E+01  1.677006730E+02 -2.354727421E+02  3.086242125E+02  8.037991537E+01  0.00000E+00  9.000E+00
     -11     1     5     5     0     0 -2.791548022E+01 -1.443342640E+02 -1.685236485E+02  2.236333471E+02  1.907348633E-06  0.00000E+00  9.000E+00
      12     1     5     5     0     0  4.046278389E+01 -6.061343146E+01 -6.308405445E+01  9.638891471E+01  1.651812370E-06  0.00000E+00  9.000E+00
      13     1     6     6     0     0  7.666300421E+00  1.086551482E+02 -1.570722553E+02  1.911449889E+02  2.697398305E-06  0.00000E+00  9.000E+00
     -14     1     6     6     0     0  6.456281941E+01  5.904552477E+01 -7.840048680E+01  1.174792236E+02  3.303624740E-06  0.00000E+00  9.000E+00
       5     1     3     3   502     0 -8.326425819E+01 -1.104956232E+02 -7.424720817E+01  1.570905148E+02  4.750000000E+00  0.00000E+00  9.000E+00
      -5     1     4     4     0   512 -4.434901100E+00  1.498605061E+02 -5.496319550E+01  1.597540453E+02  4.750000000E+00  0.00000E+00  9.000E+00
      21     1     1     2   511   502  2.922735785E+00 -2.117860479E+00 -1.652325682E+00  3.969621851E+00  0.000000000E+00  0.00000E+00  9.000E+00
</event>
<event>
     13  10001  1.00000E+00  2.23537E+01 -1.00000E+00  1.66679E-01
      21    -1     0     0   502   512  0.000000000E+00  0.000000000E+00  2.644135632E+02  2.644135632E+02  0.000000000E+00  0.00000E+00  9.000E+00
      21    -1     0     0   503   504  0.000000000E+00  0.000000000E+00 -1.680276193E+02  1.680276193E+02  0.000000000E+00  0.00000E+00  9.000E+00
       6     2     1     2   502     0  4.800436311E+01 -6.391249274E+00  1.164522659E+02  2.132847796E+02  1.720000000E+02  0.00000E+00  9.000E+00
      -6     2     1     2     0   504 -2.585088083E+01  9.376069609E+00 -5.053521529E+01  1.813669945E+02  1.720000000E+02  0.00000E+00  9.000E+00
      24     2     3     3     0     0  5.509188081E+00 -4.452243660E+01  1.254499939E+02  1.552903923E+02  7.977973703E+01  0.00000E+00  9.000E+00
     -24     2     4     4     0     0 -4.411322061E+01  6.599709764E+01 -3.758124453E+01  1.202947281E+02  8.220023441E+01  0.00000E+00  9.000E+00
     -11     1     5     5     0     0  2.420793716E+01 -9.018533691E+00  1.088362757E+02  1.118601497E+02  1.348699152E-06  0.00000E+00  9.000E+00
      12     1     5     5     0     0 -1.869874908E+01 -3.550390291E+01  1.661371819E+01  4.343024259E+01  7.152557373E-07  0.00000E+00  9.000E+00
      13     1     6     6     0     0 -1.788291394E+01  6.727034950E+01  5.517858599E+00  6.982510506E+01  2.514016236E-06  0.00000E+00  9.000E+00
     -14     1     6     6     0     0 -2.623030667E+01 -1.273251869E+00 -4.309910313E+01  5.046962303E+01  6.743495762E-07  0.00000E+00  9.000E+00
       5     1     3     3   502     0  4.249517503E+01  3.813118733E+01 -8.997727978E+00  5.799438729E+01  4.750000000E+00  0.00000E+00  9.000E+00
      -5     1     4     4     0   504  1.826233978E+01 -5.662102803E+01 -1.295397076E+01  6.107226644E+01  4.750000000E+00  0.00000E+00  9.000E+00
      21     1     1     2   503   512 -2.215348229E+01 -2.984820335E+00  3.046889327E+01  3.778940840E+01  3.371747881E-07  0.00000E+00  9.000E+00
</event>
<event>
     13  10001  1.00000E+00  3.40259E+01 -1.00000E+00  1.52858E-01
       2    -1     0     0   502     0  0.000000000E+00  0.000000000E+00  6.770220946E+02  6.770220946E+02  0.000000000E+00  0.00000E+00  9.000E+00
      -2    -1     0     0     0   511  0.000000000E+00  0.000000000E+00 -1.026529042E+02  1.026529042E+02  0.000000000E+00  0.00000E+00  9.000E+00
       6     2     1     2   502     0  7.520701341E+01  1.098743818E+02  2.796466129E+02  3.542805424E+02  1.720000000E+02  0.00000E+00  9.000E+00
      -6     2     1     2     0   512 -1.076216100E+02 -9.952745442E+01  3.135519054E+02  3.865060446E+02  1.720000000E+02  0.00000E+00  9.000E+00
      24     2     3     3     0     0  7.935386475E+01  9.632155863E+01  1.112690274E+02  1.852407567E+02  7.973997087E+01  0.00000E+00  9.000E+00
     -24     2     4     4     0     0 -1.895758337E+01 -3.484633498E+01  5.556827774E+01  1.061079856E+02  8.122446733E+01  0.00000E+00  9.000E+00
     -11     1     5     5     0     0  2.749308630E+01  1.194517323E+01  7.326409065E+01  7.915923153E+01  2.336015456E-06  0.00000E+00  9.000E+00
      12     1     5     5     0     0  5.186077845E+01  8.437638540E+01  3.800493680E+01  1.060815251E+02  2.384185791E-06  0.00000E+00  9.000E+00
      13     1     6     6     0     0  1.632221832E+01 -4.865032283E+01  4.035840436E+01  6.528452746E+01  0.000000000E+00  0.00000E+00  9.000E+00
     -14     1     6     6     0     0 -3.527980170E+01  1.380398785E+01  1.520987338E+01  4.082345817E+01  1.685873940E-07  0.00000E+00  9.000E+00
       5     1     3     3   502     0 -4.146851341E+00  1.355282318E+01  1.683775854E+02  1.690397857E+02  4.750000000E+00  0.00000E+00  9.000E+00
      -5     1     4     4     0   512 -8.866402666E+01 -6.468111944E+01  2.579836277E+02  2.803980590E+02  4.750000000E+00  0.00000E+00  9.000E+00
      21     1     1     2   512   511  3.241459663E+01 -1.034692740E+01 -1.882932793E+01  3.888841179E+01  7.539457465E-07  0.00000E+00  9.000E+00
</event>
<event>
     13  10001  1.00000E+00  1.97167E+02 -1.00000E+00  1.13811E-01
      21    -1     0     0   502   503  0.000000000E+00  0.000000000E+00  2.867595444E+02  2.867595444E+02  0.000000000E+00  0.00000E+00  9.000E+00
       1    -1     0     0   503     0  0.000000000E+00  0.000000000E+00 -1.378909452E+03  1.378909452E+03  0.000000000E+00  0.00000E+00  9.000E+00
       6     2     1     2   502     0 -1.547237210E+02 -6.916010800E+01 -2.067268484E+02  3.178718928E+02  1.720000000E+02  0.00000E+00  9.000E+00
      -6     2     1     2     0   504  3.428790421E+01  2.252689731E+02  1.297937081E+02  3.136115069E+02  1.720000000E+02  0.00000E+00  9.000E+00
      24     2     3     3     0     0 -8.696978699E+01  1.645376375E+01 -5.655123422E+01  1.321419593E+02  8.018095236E+01  0.00000E+00  9.000E+00
     -24     2     4     4     0     0  2.431337603E+01  5.889053661E+01 -7.603282721E-01  1.018375844E+02  7.944230578E+01  0.00000E+00  9.000E+00
     -11     1     5     5     0     0 -7.911245286E+01  5.705813824E+00 -7.515263760E+01  1.092669000E+02  9.536743164E-07  0.00000E+00  9.000E+00
      12     1     5     5     0     0 -7.857334137E+00  1.074794993E+01  1.860140338E+01  2.287505924E+01  4.768371582E-07  0.00000E+00  9.000E+00
      13     1     6     6     0     0 -2.583925874E+01  1.709383697E+01  1.537552142E+01  3.458718279E+01  4.129530925E-07  0.00000E+00  9.000E+00
     -14     1     6     6     0     0  5.015263477E+01  4.179669964E+01 -1.613584969E+01  6.725040164E+01  1.039242493E-06  0.00000E+00  9.000E+00
       5     1     3     3   502     0 -6.775393403E+01 -8.561387175E+01 -1.501756142E+02  1.857299335E+02  4.750000000E+00  0.00000E+00  9.000E+00
      -5     1     4     4     0   504  9.974528183E+00  1.663784365E+02  1.305540364E+02  2.117739225E+02  4.750000000E+00  0.00000E+00  9.000E+00
       1     1     1     2   504     0  1.204358168E+02 -1.561088651E+02 -1.015216768E+03  1.034185597E+03  1.868812365E-05  0.00000E+00  9.000E+00
</event>
<event>
     13  10001  1.00000E+00  2.22041E+01 -1.00000E+00  1.66921E-01
      21    -1     0     0   511   504  0.000000000E+00  0.000000000E+00  7.771166223E+01  7.771166223E+01  0.000000000E+00  0.00000E+00  9.000E+00
      21    -1     0     0   502   503  0.000000000E+00  0.000000000E+00 -5.270008365E+02  5.270008365E+02  0.000000000E+00  0.00000E+00  9.000E+00
       6     2     1     2   502     0 -4.343689269E+01  4.325900887E+01 -1.463902410E+02  2.340346302E+02  1.720000000E+02  0.00000E+00  9.000E+00
      -6     2     1     2     0   504  4.356743113E+01 -6.546273150E+01 -2.855484479E+02  3.424987684E+02  1.720000000E+02  0.00000E+00  9.000E+00
      24     2     3     3     0     0 -6.222274400E+01  8.379518934E+01 -1.364180206E+02  1.880118335E+02  7.645436267E+01  0.00000E+00  9.000E+00
     -24     2     4     4     0     0  2.219922725E+01 -8.011192654E+01 -2.931799061E+02  3.150761371E+02  8.004866234E+01  0.00000E+00  9.000E+00
     -11     1     5     5     0     0 -1.384823447E+01 -1.242239728E+01 -3.714499795E+01  4.154323561E+01  1.651812370E-06  0.00000E+00  9.000E+00
      12     1     5     5     0     0 -4.837450954E+01  9.621758663E+01 -9.927302268E+01  1.464685979E+02  3.814697266E-06  0.00000E+00  9.000E+00
      13     1     6     6     0     0  3.295176117E+00 -9.062458638E+01 -2.029366443E+02  2.222767542E+02  0.000000000E+00  0.00000E+00  9.000E+00
     -14     1     6     6     0     0  1.890405113E+01  1.051265984E+01 -9.024326180E+01  9.279938289E+01  1.651812370E-06  0.00000E+00  9.000E+00
       5     1     3     3   502     0  1.878585131E+01 -4.053618048E+01 -9.972220361E+00  4.602279670E+01  4.750000000E+00  0.00000E+00  9.000E+00
      -5     1     4     4     0   504  2.136820389E+01  1.464919504E+01  7.631458255E+00  2.742263131E+01  4.750000000E+00  0.00000E+00  9.000E+00
      21     1     1     2   511   503 -1.305384414E-01  2.220372263E+01 -1.735048542E+01  2.817910011E+01  2.384185791E-07  0.00000E+00  9.000E+00
</event>
<event>
     13  10001  1.00000E+00  3.21474E+01 -1.00000E+00  1.54587E-01
      21    -1     0     0   502   503  0.000000000E+00  0.000000000E+00  5.658938321E+02  5.658938321E+02  0.000000000E+00  0.00000E+00  9.000E+00
      21    -1     0     0   512   504  0.000000000E+00  0.000000000E+00 -1.169865939E+02  1.169865939E+02  0.000000000E+00  0.00000E+00  9.000E+00
       6     2     1     2   502     0  1.489772942E+01 -1.357232744E+02  3.514439399E+02  4.144147590E+02  1.720000000E+02  0.00000E+00  9.000E+00
      -6     2     1     2     0   504  5.114741690E-01  1.075096384E+02  1.136152758E+02  2.324887413E+02  1.720000000E+02  0.00000E+00  9.000E+00
      24     2     3     3     0     0 -3.027954103E+01 -2.221127667E+01  1.102733675E+02  1.440228824E+02  8.468874584E+01  0.00000E+00  9.000E+00
     -24     2     4     4     0     0 -1.942312193E+01 -9.818873313E+00  4.396534404E+01  9.451394916E+01  8.078531531E+01  0.00000E+00  9.000E+00
     -11     1     5     5     0     0  1.797715896E+01  2.696067383E+00  7.960869951E+01  8.165777404E+01  0.000000000E+00  0.00000E+00  9.000E+00
      12     1     5     5     0     0 -4.825670000E+01 -2.490734405E+01  3.066466796E+01  6.236510838E+01  1.430511475E-06  0.00000E+00  9.000E+00
      13     1     6     6     0     0 -3.047091244E+01  1.047645505E+01 -1.167070838E+01  3.427007513E+01  1.685873940E-07  0.00000E+00  9.000E+00
     -14     1     6     6     0     0  1.104779051E+01 -2.029532836E+01  5.563605242E+01  6.024387403E+01  6.743495762E-07  0.00000E+00  9.000E+00
       5     1     3     3   502     0  4.517727045E+01 -1.135119977E+02  2.411705724E+02  2.703918766E+02  4.750000000E+00  0.00000E+00  9.000E+00
      -5     1     4     4     0   504  1.993459610E+01  1.173285117E+02  6.964993172E+01  1.379747922E+02  4.750000000E+00  0.00000E+00  9.000E+00
      21     1     1     2   512   503 -1.540920359E+01  2.821363599E+01 -1.615197748E+01  3.597692577E+01  2.384185791E-07  0.00000E+00  9.000E+00
</event>
<event>
     13  10001  1.00000E+00  1.01203E+01 -1.00000E+00  2.01337E-01
      21    -1     0     0   503   504  0.000000000E+00  0.000000000E+00  1.991104073E+02  1.991104073E+02  0.000000000E+00  0.00000E+00  9.000E+00
      21    -1     0     0   502   511  0.000000000E+00  0.000000000E+00 -6.031891026E+02  6.031891026E+02  0.000000000E+00  0.00000E+00  9.000E+00
       6     2     1     2   502     0  1.407338738E+02 -1.633667025E+02  2.676826683E+01  2.771195461E+02  1.720000000E+02  0.00000E+00  9.000E+00
      -6     2     1     2     0   504 -1.411428857E+02  1.734786984E+02 -3.797243769E+02  4.730652972E+02  1.720000000E+02  0.00000E+00  9.000E+00
      24     2     3     3     0     0  3.991975572E+01 -8.131036340E+01  7.055758001E+01  1.398723398E+02  7.988076894E+01  0.00000E+00  9.000E+00
     -24     2     4     4     0     0 -1.574127918E+02  9.203971418E+01 -2.730516580E+02  3.377927965E+02  7.935155587E+01  0.00000E+00  9.000E+00
     -11     1     5     5     0     0  5.947252792E+00 -2.536851506E+01 -1.658637357E+01  3.088752435E+01  5.840038640E-07  0.00000E+00  9.000E+00
      12     1     5     5     0     0  3.397250293E+01 -5.594184834E+01  8.714395358E+01  1.089848154E+02  1.651812370E-06  0.00000E+00  9.000E+00
      13     1     6     6     0     0 -3.125751276E+01  3.601554687E+01 -2.481331471E+01  5.375734655E+01  4.768371582E-07  0.00000E+00  9.000E+00
     -14     1     6     6     0     0 -1.261552790E+02  5.602416731E+01 -2.482383433E+02  2.840354499E+02  4.672030912E-06  0.00000E+00  9.000E+00
       5     1     3     3   502     0  1.008141181E+02 -8.205633913E+01 -4.378931318E+01  1.372472063E+02  4.750000000E+00  0.00000E+00  9.000E+00
      -5     1     4     4     0   504  1.626990603E+01  8.143898419E+01 -1.066727189E+02  1.352725007E+02  4.750000000E+00  0.00000E+00  9.000E+00
      21     1     1     2   503   511  4.090119235E-01 -1.011199584E+01 -5.112258527E+01  5.211466661E+01  0.000000000E+00  0.00000E+00  9.000E+00
</event>
<event>
     13  10001  1.00000E+00  2.76765E+02 -1.00000E+00  1.08501E-01
       1    -1     0     0   503     0  0.000000000E+00  0.000000000E+00  8.230869943E+02  8.230869943E+02  0.000000000E+00  0.00000E+00  9.000E+00
      21    -1     0     0   502   503  0.000000000E+00  0.000000000E+00 -2.109253367E+02  2.109253367E+02  0.000000000E+00  0.00000E+00  9.000E+00
       6     2     1     2   502     0 -6.684943008E+01 -1.494251705E+02  2.157932714E+01  2.384248209E+02  1.720000000E+02  0.00000E+00  9.000E+00
      -6     2     1     2     0   504 -1.843362098E+02  3.321492961E+01  3.174188142E+02  4.067207561E+02  1.720000000E+02  0.00000E+00  9.000E+00
      24     2     3     3     0     0  3.124382606E+01 -6.142497813E+01  4.592453428E+01  1.043294356E+02  6.345363410E+01  0.00000E+00  9.000E+00
     -24     2     4     4     0     0 -2.090794613E+02  3.051802110E+01  2.752328009E+02  3.575097407E+02  8.610777709E+01  0.00000E+00  9.000E+00
     -11     1     5     5     0     0  8.725078150E+00 -3.443064758E+01 -1.121033316E+01  3.724604745E+01  1.535904256E-06  0.00000E+00  9.000E+00
      12     1     5     5     0     0  2.251874791E+01 -2.699433056E+01  5.713486744E+01  6.708338816E+01  1.784161275E-06  0.00000E+00  9.000E+00
      13     1     6     6     0     0 -6.905240655E+00  2.495192376E+01  3.297899769E+01  4.192726006E+01  9.536743164E-07  0.00000E+00  9.000E+00
     -14     1     6     6     0     0 -2.021742207E+02  5.566097338E+00  2.422538032E+02  3.155824807E+02  3.814697266E-06  0.00000E+00  9.000E+00
       5     1     3     3   502     0 -9.809325614E+01 -8.800019235E+01 -2.434520714E+01  1.340953853E+02  4.750000000E+00  0.00000E+00  9.000E+00
      -5     1     4     4     0   504  2.474325149E+01  2.696908511E+00  4.218601337E+01  4.921101537E+01  4.750000000E+00  0.00000E+00  9.000E+00
       1     1     1     2   504     0  2.511856399E+02  1.162102409E+02  2.731635162E+02  3.888667540E+02  6.607249480E-06  0.00000E+00  9.000E+00
</event>
<event>
     13  10001  1.00000E+00  2.94837E+01 -1.00000E+00  1.57299E-01
       2    -1     0     0   503     0  0.000000000E+00  0.000000000E+00  6.950773689E+02  6.950773689E+02  0.000000000E+00  0.00000E+00  9.000E+00
      21    -1     0     0   502   503  0.000000000E+00  0.000000000E+00 -7.156689902E+02  7.156689902E+02  0.000000000E+00  0.00000E+00  9.000E+00
       6     2     1     2   502     0  3.006012247E+01  5.714837465E+01 -1.296401954E+02  2.248557937E+02  1.720000000E+02  0.00000E+00  9.000E+00
      -6     2     1     2     0   504 -1.524474701E+00 -4.973176926E+01 -5.231820164E+02  5.529728702E+02  1.720000000E+02  0.00000E+00  9.000E+00
      24     2     3     3     0     0  2.329943293E+01  1.019284731E+02 -1.203283911E+02  1.783774510E+02  8.004571277E+01  0.00000E+00  9.000E+00
     -24     2     4     4     0     0  2.224404770E+01 -8.374661085E+01 -2.507196877E+02  2.773277448E+02  8.088277777E+01  0.00000E+00  9.000E+00
     -11     1     5     5     0     0  4.722542696E+01  3.018327143E+01 -5.059192373E+01  7.550373218E+01  1.348699152E-06  0.00000E+00  9.000E+00
      12     1     5     5     0     0 -2.392599403E+01  7.174520163E+01 -6.973646741E+01  1.028737189E+02  2.523185073E-06  0.00000E+00  9.000E+00
      13     1     6     6     0     0 -1.736525685E+01 -1.654818622E+01 -1.391010453E+02  1.411541548E+02  1.907348633E-06  0.00000E+00  9.000E+00
     -14     1     6     6     0     0  3.960930455E+01 -6.719842462E+01 -1.116186424E+02  1.361735900E+02  2.336015456E-06  0.00000E+00  9.000E+00
       5     1     3     3   502     0  6.760689543E+00 -4.478009841E+01 -9.311804290E+00  4.647834265E+01  4.750000000E+00  0.00000E+00  9.000E+00
      -5     1     4     4     0   504 -2.376852240E+01  3.401484159E+01 -2.724623287E+02  2.756451255E+02  4.750000000E+00  0.00000E+00  9.000E+00
       2     1     1     2   504     0 -2.853564777E+01 -7.416605393E+00  6.322305905E+02  6.329176952E+02  7.629394531E-06  0.00000E+00  9.000E+00
</event>
<event>
     13  10001  1.00000E+00  3.08115E+01 -1.00000E+00  1.55905E-01
      21    -1     0     0   502   511  0.000000000E+00  0.000000000E+00  2.488807397E+02  2.488807397E+02  0.000000000E+00  0.00000E+00  9.000E+00
      21    -1     0     0   503   504  0.000000000E+00  0.000000000E+00 -2.528443434E+02  2.528443434E+02  0.000000000E+00  0.00000E+00  9.000E+00
       6     2     1     2   502     0  4.574979213E+01 -3.215487951E+01  6.034983407E+01  1.906648427E+02  1.720000000E+02  0.00000E+00  9.000E+00
      -6     2     1     2     0   504 -4.043532651E+01  6.250463687E+01 -1.369736784E+02  2.321371013E+02  1.720000000E+02  0.00000E+00  9.000E+00
      24     2     3     3     0     0  7.251502358E+01 -1.880374658E+01 -1.377413205E+01  1.105926551E+02  8.018103967E+01  0.00000E+00  9.000E+00
     -24     2     4     4     0     0  9.658562007E+00  1.682989624E+01 -3.117759493E+00  8.201865108E+01  7.962917476E+01  0.00000E+00  9.000E+00
     -11     1     5     5     0     0  6.477132449E+01 -1.446355716E+01  2.492178736E+01  7.089156824E+01  2.633419279E-06  0.00000E+00  9.000E+00
      12     1     5     5     0     0  7.743699084E+00 -4.340189423E+00 -3.869591942E+01  3.970108688E+01  4.768371582E-07  0.00000E+00  9.000E+00
      13     1     6     6     0     0  1.864643742E+01  4.265280138E+01 -1.913536186E+01  5.033004240E+01  3.371747881E-07  0.00000E+00  9.000E+00
     -14     1     6     6     0     0 -8.987875412E+00 -2.582290514E+01  1.601760237E+01  3.168860868E+01  2.384185791E-07  0.00000E+00  9.000E+00
       5     1     3     3   502     0 -2.676523145E+01 -1.335113293E+01  7.412396612E+01  8.007218755E+01  4.750000000E+00  0.00000E+00  9.000E+00
      -5     1     4     4     0   504 -5.009388851E+01  4.567474063E+01 -1.338559189E+02  1.501184503E+02  4.750000000E+00  0.00000E+00  9.000E+00
      21     1     1     2   503   511 -5.314465620E+00 -3.034975737E+01  7.266024055E+01  7.892313903E+01  1.348699152E-06  0.00000E+00  9.000E+00
</event>
<event>
     13  10001  1.00000E+00  1.34623E+02 -1.00000E+00  1.20459E-01
      21    -1     0     0   502   503  0.000000000E+00  0.000000000E+00  1.516095780E+02  1.516095780E+02  0.000000000E+00  0.00000E+00  9.000E+00
      21    -1     0     0   503   512  0.000000000E+00  0.000000000E+00 -5.339186615E+02  5.339186615E+02  0.000000000E+00  0.00000E+00  9.000E+00
       6     2     1     2   502     0  6.888465023E+01  1.218853263E+02 -6.000650714E+01  2.297518416E+02  1.720000000E+02  0.00000E+00  9.000E+00
      -6     2     1     2     0   504 -4.394391544E+01  1.040721555E+01 -1.268033226E+02  2.184089294E+02  1.720000000E+02  0.00000E+00  9.000E+00
      24     2     3     3     0     0 -2.823347913E+01  5.421784789E+01 -4.244218582E+01  1.099942257E+02  8.099806274E+01  0.00000E+00  9.000E+00
     -24     2     4     4     0     0  4.093046858E+01  1.665982501E+01 -6.427762792E+01  1.126980919E+02  8.134121606E+01  0.00000E+00  9.000E+00
     -11     1     5     5     0     0 -7.662834578E-01  6.710980806E+01 -4.289059211E+01  7.964870633E+01  4.768371582E-07  0.00000E+00  9.000E+00
      12     1     5     5     0     0 -2.746719568E+01 -1.289196017E+01  4.484062939E-01  3.034551933E+01  6.856356060E-07  0.00000E+00  9.000E+00
      13     1     6     6     0     0  1.997647043E+00  1.412550708E+01 -7.159509683E+01  7.300259197E+01  9.536743164E-07  0.00000E+00  9.000E+00
     -14     1     6     6     0     0  3.893282154E+01  2.534317932E+00  7.317468909E+00  3.969549989E+01  2.230201594E-07  0.00000E+00  9.000E+00
       5     1     3     3   502     0  9.711812936E+01  6.766747840E+01 -1.756432132E+01  1.197576159E+02  4.750000000E+00  0.00000E+00  9.000E+00
      -5     1     4     4     0   504 -8.487438402E+01 -6.252609460E+00 -6.252569468E+01  1.057108376E+02  4.750000000E+00  0.00000E+00  9.000E+00
      21     1     1     2   504   512 -2.494073479E+01 -1.322925418E+02 -1.954992537E+02  2.373674685E+02  2.697398305E-06  0.00000E+00  9.000E+00
</event>
<event>
     13  10001  1.00000E+00  7.87686E+01 -1.00000E+00  1.31262E-01
      21    -1     0     0   503   504  0.000000000E+00  0.000000000E+00  6.638846144E+02  6.638846144E+02  0.000000000E+00  0.00000E+00  9.000E+00
      21    -1     0     0   511   503  0.000000000E+00  0.000000000E+00 -1.904628740E+02  1.904628740E+02  0.000000000E+00  0.00000E+00  9.000E+00
       6     2     1     2   502     0 -1.221626612E+02 -1.299203646E+02  2.756856550E+02  3.706610275E+02  1.720000000E+02  0.00000E+00  9.000E+00
      -6     2     1     2     0   504  5.025845544E+01  1.620804544E+02  2.799693780E+02  3.698146004E+02  1.720000000E+02  0.00000E+00  9.000E+00
      24     2     3     3     0     0 -9.043037853E+01 -1.237540554E+02  1.204484665E+02  2.120227335E+02  8.338517159E+01  0.00000E+00  9.000E+00
     -24     2     4     4     0     0  3.879775339E+01  1.311754958E+02  2.941535350E+02  3.336176811E+02  7.785999372E+01  0.00000E+00  9.000E+00
     -11     1     5     5     0     0  6.496822052E+00  5.254827786E+00  2.068749662E+01  2.231130719E+01  8.596304120E-07  0.00000E+00  9.000E+00
      12     1     5     5     0     0 -9.692720058E+01 -1.290088832E+02  9.976096984E+01  1.897114263E+02  1.907348633E-06  0.00000E+00  9.000E+00
      13     1     6     6     0     0  2.625765177E+01  6.228778004E+00  2.579313881E+01  3.733025531E+01  4.768371582E-07  0.00000E+00  9.000E+00
     -14     1     6     6     0     0  1.254010162E+01  1.249467178E+02  2.683603962E+02  2.962874258E+02  0.000000000E+00  0.00000E+00  9.000E+00
       5     1     3     3   502     0 -3.173228270E+01 -6.166309221E+00  1.552371885E+02  1.586382940E+02  4.750000000E+00  0.00000E+00  9.000E+00
      -5     1     4     4     0   504  1.146070206E+01  3.090495859E+01 -1.418415699E+01  3.619691930E+01  4.750000000E+00  0.00000E+00  9.000E+00
      21     1     1     2   511   502  7.190420579E+01 -3.216008976E+01 -8.223329261E+01  1.138718604E+02  2.132480600E-06  0.00000E+00  9.000E+00
</event>
<event>
     13  10001  1.00000E+00  2.56450E+01 -1.00000E+00  1.61885E-01
      21    -1     0     0   502   503  0.000000000E+00  0.000000000E+00  7.345248328E+02  7.345248328E+02  0.000000000E+00  0.00000E+00  9.000E+00
       2    -1     0     0   503     0  0.000000000E+00  0.000000000E+00 -9.999644656E+02  9.999644656E+02  0.000000000E+00  0.00000E+00  9.000E+00
       6     2     1     2   502     0 -8.661474889E+01  1.327403989E+01  6.043579327E+02  6.344374088E+02  1.720000000E+02  0.00000E+00  9.000E+00
      -6     2     1     2     0   504  1.109469668E+02 -2.137396832E+01  2.283197440E+01  2.070540389E+02  1.720000000E+02  0.00000E+00  9.000E+00
      24     2     3     3     0     0 -1.034927594E+01  4.910050891E+01  4.352723037E+02  4.454599745E+02  8.034079293E+01  0.00000E+00  9.000E+00
     -24     2     4     4     0     0  6.184838623E+01 -2.099338997E+01  7.984270839E+01  1.316643729E+02  8.182116900E+01  0.00000E+00  9.000E+00
     -11     1     5     5     0     0  2.911041680E+01  1.412514993E+01  7.999391536E+01  8.628999201E+01  2.336015456E-06  0.00000E+00  9.000E+00
      12     1     5     5     0     0 -3.945969274E+01  3.497535897E+01  3.552783883E+02  3.591699825E+02  6.607249480E-06  0.00000E+00  9.000E+00
      13     1     6     6     0     0 -1.644344617E+01 -1.610994467E+01  5.674727400E+00  2.370906515E+01  5.717076687E-07  0.00000E+00  9.000E+00
     -14     1     6     6     0     0  7.829183240E+01 -4.883445300E+00  7.416798099E+01  1.079553077E+02  1.907348633E-06  0.00000E+00  9.000E+00
       5     1     3     3   502     0 -7.626547295E+01 -3.582646902E+01  1.690856291E+02  1.889774344E+02  4.750000000E+00  0.00000E+00  9.000E+00
      -5     1     4     4     0   504  4.909858056E+01 -3.805783511E-01 -5.701073399E+01  7.538966602E+01  4.750000000E+00  0.00000E+00  9.000E+00
       2     1     1     2   504     0 -2.433221790E+01  8.099928429E+00 -8.926295399E+02  8.929978506E+02  1.078959322E-05  0.00000E+00  9.000E+00
</event>
<event>
     13  10001  1.00000E+00  7.63285E+00 -1.00000E+00  2.17621E-01
      -2    -1     0     0     0   511  0.000000000E+00  0.000000000E+00  9.696230763E+01  9.696230763E+01  0.000000000E+00  0.00000E+00  9.000E+00
       2    -1     0     0   502     0  0.000000000E+00  0.000000000E+00 -1.014525062E+03  1.014525062E+03  0.000000000E+00  0.00000E+00  9.000E+00
       6     2     1     2   502     0  2.096112665E+02 -7.016826343E+01 -2.239209616E+02  3.585875978E+02  1.720000000E+02  0.00000E+00  9.000E+00
      -6     2     1     2     0   512 -2.120587355E+02  7.739808792E+01 -6.844266718E+02  7.409340324E+02  1.720000000E+02  0.00000E+00  9.000E+00
      24     2     3     3     0     0  4.947390856E+01 -6.986363079E+01 -1.096896095E+02  1.618252271E+02  8.262565677E+01  0.00000E+00  9.000E+00
     -24     2     4     4     0     0 -1.962737674E+02  7.810144115E+01 -6.880346647E+02  7.240449816E+02  7.890632907E+01  0.00000E+00  9.000E+00
     -11     1     5     5     0     0  4.333111676E+01 -2.634133944E+01 -8.387325282E+00  5.139843450E+01  6.078504936E-07  0.00000E+00  9.000E+00
      12     1     5     5     0     0  6.142791798E+00 -4.352229135E+01 -1.013022842E+02  1.104267926E+02  1.348699152E-06  0.00000E+00  9.000E+00
      13     1     6     6     0     0 -1.025676861E+02  8.237021742E+01 -4.144280155E+02  4.348052012E+02  7.629394531E-06  0.00000E+00  9.000E+00
     -14     1     6     6     0     0 -9.370608129E+01 -4.268776268E+00 -2.736066491E+02  2.892397804E+02  5.394796609E-06  0.00000E+00  9.000E+00
       5     1     3     3   502     0  1.601373580E+02 -3.046326398E-01 -1.142313520E+02  1.967623707E+02  4.750000000E+00  0.00000E+00  9.000E+00
      -5     1     4     4     0   512 -1.578496810E+01 -7.033532294E-01  3.607992865E+00  1.688905078E+01  4.750000000E+00  0.00000E+00  9.000E+00
      21     1     1     2   512   511  2.447468943E+00 -7.229824496E+00 -9.215121180E+00  1.196573963E+01  0.000000000E+00  0.00000E+00  9.000E+00
</event>
<event>
     13  10001  1.00000E+00  4.25177E+01 -1.00000E+00  1.46443E-01
      21    -1     0     0   513   504  0.000000000E+00  0.000000000E+00  5.540555767E+02  5.540555767E+02  0.000000000E+00  0.00000E+00  9.000E+00
      21    -1     0     0   502   503  0.000000000E+00  0.000000000E+00 -4.694054302E+02  4.694054302E+02  0.000000000E+00  0.00000E+00  9.000E+00
       6     2     1     2   502     0  7.856784418E+01 -1.776110930E+02 -1.300757731E+02  2.902108083E+02  1.720000000E+02  0.00000E+00  9.000E+00
      -6     2     1     2     0   504 -1.210839034E+02  1.772350097E+02 -1.848608607E+02  3.314077521E+02  1.720000000E+02  0.00000E+00  9.000E+00
      24     2     3     3     0     0  6.926693468E+01 -8.564720494E+01 -9.028361638E+00  1.378333101E+02  8.235993022E+01  0.00000E+00  9.000E+00
     -24     2     4     4     0     0 -1.179696089E+02  1.440588503E+02 -2.067003638E+02  2.912844075E+02  8.632372023E+01  0.00000E+00  9.000E+00
     -11     1     5     5     0     0  3.467726155E+01  8.529604104E+00  6.539238496E+00  3.630465886E+01  2.384185791E-07  0.00000E+00  9.000E+00
      12     1     5     5     0     0  3.458967313E+01 -9.417680905E+01 -1.556760013E+01  1.015286512E+02  2.589888690E-06  0.00000E+00  9.000E+00
      13     1     6     6     0     0 -4.608914579E+01  8.977563153E+00 -7.937150655E+01  9.222061620E+01  9.536743164E-07  0.00000E+00  9.000E+00
     -14     1     6     6     0     0 -7.188046312E+01  1.350812871E+02 -1.273288573E+02  1.990637913E+02  2.336015456E-06  0.00000E+00  9.000E+00
       5     1     3     3   502     0  9.300909494E+00 -9.196388805E+01 -1.210474115E+02  1.523774982E+02  4.750000000E+00  0.00000E+00  9.000E+00
      -5     1     4     4     0   504 -3.114294500E+00  3.317615939E+01  2.183950314E+01  4.012334457E+01  4.750000000E+00  0.00000E+00  9.000E+00
      21     1     1     2   513   503  4.251605924E+01  3.760833034E-01  3.995867804E+02  4.018424465E+02  0.000000000E+00  0.00000E+00  9.000E+00
</event>
<event>
     13  10001  1.00000E+00  1.41182E+01 -1.00000E+00  1.85101E-01
       2    -1     0     0   503     0  0.000000000E+00  0.000000000E+00  2.860212472E+02  2.860212472E+02  0.000000000E+00  0.00000E+00  9.000E+00
      21    -1     0     0   502   503  0.000000000E+00  0.000000000E+00 -2.488821897E+02  2.488821897E+02  0.000000000E+00  0.00000E+00  9.000E+00
       6     2     1     2   502     0 -5.340100000E+01 -7.192084722E+00 -5.020866252E+01  1.871050579E+02  1.720000000E+02  0.00000E+00  9.000E+00
      -6     2     1     2     0   504  4.835385401E+01  2.037732795E+01 -6.767167148E+01  1.921374139E+02  1.720000000E+02  0.00000E+00  9.000E+00
      24     2     3     3     0     0 -9.132009256E+01 -3.671666707E+01 -1.559569814E+01  1.276897539E+02  7.983717491E+01  0.00000E+00  9.000E+00
     -24     2     4     4     0     0 -9.468839708E+00  6.690513661E+01 -4.804250472E+01  1.152207864E+02  8.001119384E+01  0.00000E+00  9.000E+00
     -11     1     5     5     0     0 -8.107795233E+01 -5.653990331E+01  2.628603435E+00  9.888025372E+01  8.850838187E-07  0.00000E+00  9.000E+00
      12     1     5     5     0     0 -1.024214023E+01  1.982323623E+01 -1.822430158E+01  2.880950016E+01  6.743495762E-07  0.00000E+00  9.000E+00
      13     1     6     6     0     0 -3.366140028E+01  7.132902199E+00  6.561596147E-01  3.441509419E+01  7.559677916E-07  0.00000E+00  9.000E+00
     -14     1     6     6     0     0  2.419256057E+01  5.977223441E+01 -4.869866433E+01  8.080569226E+01  1.784161275E-06  0.00000E+00  9.000E+00
       5     1     3     3   502     0  3.791909257E+01  2.952458235E+01 -3.461296437E+01  5.941530398E+01  4.750000000E+00  0.00000E+00  9.000E+00
      -5     1     4     4     0   504  5.782269372E+01 -4.652780866E+01 -1.962916676E+01  7.691662743E+01  4.750000000E+00  0.00000E+00  9.000E+00
       2     1     1     2   504     0  5.047145985E+00 -1.318524323E+01  1.550193915E+02  1.556609651E+02  2.697398305E-06  0.00000E+00  9.000E+00
</event>
<event>
     13  10001  1.00000E+00  5.33607E+01 -1.00000E+00  1.40448E-01
       2    -1     0     0   503     0  0.000000000E+00  0.000000000E+00  6.439280026E+02  6.439280026E+02  0.000000000E+00  0.00000E+00  9.000E+00
      21    -1     0     0   502   503  0.000000000E+00  0.000000000E+00 -1.758454253E+02  1.758454253E+02  0.000000000E+00  0.00000E+00  9.000E+00
       6     2     1     2   502     0 -1.017749964E+01  1.991402858E+01  6.378855054E+01  1.848056525E+02  1.720000000E+02  0.00000E+00  9.000E+00
      -6     2     1     2     0   504  2.663790327E+01 -7.067251937E+01 -3.615417012E+01  1.912989987E+02  1.720000000E+02  0.00000E+00  9.000E+00
      24     2     3     3     0     0 -6.908952623E+01 -5.285038813E-01  1.929310774E+01  1.080532523E+02  8.080618404E+01  0.00000E+00  9.000E+00
     -24     2     4     4     0     0  5.819741466E+01 -9.074753731E+01  5.071333892E+00  1.354320694E+02  8.181731114E+01  0.00000E+00  9.000E+00
     -11     1     5     5     0     0 -4.028654291E+01 -4.032798060E+01  7.180174440E+00  5.745351567E+01  1.253115895E-06  0.00000E+00  9.000E+00
      12     1     5     5     0     0 -2.880298333E+01  3.979947672E+01  1.211293330E+01  5.059973665E+01  1.052827938E-06  0.00000E+00  9.000E+00
      13     1     6     6     0     0  2.788036072E+01 -3.106754613E+01  4.180398034E+01  5.907689658E+01  4.768371582E-07  0.00000E+00  9.000E+00
     -14     1     6     6     0     0  3.031705394E+01 -5.967999118E+01 -3.673264645E+01  7.635517286E+01  1.348699152E-06  0.00000E+00  9.000E+00
       5     1     3     3   502     0  5.891202659E+01  2.044253246E+01  4.449544280E+01  7.675240023E+01  4.750000000E+00  0.00000E+00  9.000E+00
      -5     1     4     4     0   504 -3.155951139E+01  2.007501794E+01 -4.122550401E+01  5.586692926E+01  4.750000000E+00  0.00000E+00  9.000E+00
       2     1     1     2   504     0 -1.646040363E+01  5.075849080E+01  4.404481969E+02  4.436687767E+02  7.629394531E-06  0.00000E+00  9.000E+00
</event>
<event>
     13  10001  1.00000E+00  2.95812E+01 -1.00000E+00  1.57193E-01
      21    -1     0     0   503   511  0.000000000E+00  0.000000000E+00  2.383989921E+02  2.383989921E+02  0.000000000E+00  0.00000E+00  9.000E+00
      21    -1     0     0   502   503  0.000000000E+00  0.000000000E+00 -3.829953338E+02  3.829953338E+02  0.000000000E+00  0.00000E+00  9.000E+00
       6     2     1     2   502     0 -1.912754444E+02  9.414947341E+01 -1.862438397E+02  3.312418856E+02  1.720000000E+02  0.00000E+00  9.000E+00
      -6     2     1     2     0   504  1.794848798E+02 -6.701960500E+01  3.964317995E+01  2.605034189E+02  1.720000000E+02  0.00000E+00  9.000E+00
      24     2     3     3     0     0 -2.090201535E+02  6.298041351E+01 -1.807757326E+02  2.946516179E+02  8.052175719E+01  0.00000E+00  9.000E+00
     -24     2     4     4     0     0  1.412100710E+02  8.153511592E+00 -7.207822382E+00  1.638931846E+02  8.247581074E+01  0.00000E+00  9.000E+00
     -11     1     5     5     0     0 -9.183415795E+01  6.709852751E+01 -1.067292576E+02  1.559707004E+02  3.568322551E-06  0.00000E+00  9.000E+00
      12     1     5     5     0     0 -1.171859956E+02 -4.118114003E+00 -7.404647505E+01  1.386809175E+02  2.132480600E-06  0.00000E+00  9.000E+00
      13     1     6     6     0     0  6.279443866E+01 -3.472617255E+01  1.124966262E+01  7.263334975E+01  1.039242493E-06  0.00000E+00  9.000E+00
     -14     1     6     6     0     0  7.841563235E+01  4.287968414E+01 -1.845748500E+01  9.125983487E+01  1.735713456E-06  0.00000E+00  9.000E+00
       5     1     3     3   502     0  1.774470910E+01  3.116905990E+01 -5.468107078E+00  3.659026771E+01  4.750000000E+00  0.00000E+00  9.000E+00
      -5     1     4     4     0   504  3.827480884E+01 -7.517311659E+01  4.685100233E+01  9.661023429E+01  4.750000000E+00  0.00000E+00  9.000E+00
      21     1     1     2   504   511  1.179056459E+01 -2.712986841E+01  2.004318000E+00  2.964902130E+01  7.146345859E-07  0.00000E+00  9.000E+00
</event>
<event>
     13  10001  1.00000E+00  3.22915E+02 -1.00000E+00  1.06249E-01
      21    -1     0     0   502   503  0.000000000E+00  0.000000000E+00  3.521161523E+02  3.521161523E+02  0.000000000E+00  0.00000E+00  9.000E+00
      21    -1     0     0   512   504  0.000000000E+00  0.000000000E+00 -1.130686378E+03  1.130686378E+03  0.000000000E+00  0.00000E+00  9.000E+00
       6     2     1     2   502     0 -4.351546304E+02  1.965261291E+02 -5.736175212E+02  7.659002105E+02  1.720000000E+02  0.00000E+00  9.000E+00
      -6     2     1     2     0   504  1.159242054E+02 -2.451689983E+02  2.249445561E+01  3.219258605E+02  1.720000000E+02  0.00000E+00  9.000E+00
      24     2     3     3     0     0 -1.763941709E+02  1.613084608E+02 -2.396548509E+02  3.419298257E+02  4.843795057E+01  0.00000E+00  9.000E+00
     -24     2     4     4     0     0 -9.144506100E+00 -9.275564274E+01  2.084968251E+01  1.247019235E+02  8.017873290E+01  0.00000E+00  9.000E+00
     -11     1     5     5     0     0 -9.492393521E+01  1.089699064E+02 -1.188832592E+02  1.871315668E+02  0.000000000E+00  0.00000E+00  9.000E+00
      12     1     5     5     0     0 -8.147023572E+01  5.233855444E+01 -1.207715918E+02  1.547982589E+02  0.000000000E+00  0.00000E+00  9.000E+00
      13     1     6     6     0     0  2.300177771E+01 -2.854054118E+00 -8.700704086E+00  2.475741615E+01  3.576278687E-07  0.00000E+00  9.000E+00
     -14     1     6     6     0     0 -3.214628381E+01 -8.990158862E+01  2.955038659E+01  9.994450734E+01  1.261592536E-06  0.00000E+00  9.000E+00
       5     1     3     3   502     0 -2.587604595E+02  3.521766831E+01 -3.339626702E+02  4.239703848E+02  4.750000000E+00  0.00000E+00  9.000E+00
      -5     1     4     4     0   504  1.250687115E+02 -1.524133555E+02  1.644773106E+00  1.972239370E+02  4.750000000E+00  0.00000E+00  9.000E+00
      21     1     1     2   512   503  3.192304250E+02  4.864286917E+01 -2.274471606E+02  3.949764598E+02  2.697398305E-06  0.00000E+00  9.000E+00
</event>
<event>
     13  10001  1.00000E+00  8.00243E+01 -1.00000E+00  1.30915E-01
       2    -1     0     0   502     0  0.000000000E+00  0.000000000E+00  9.605279908E+02  9.605279908E+02  0.000000000E+00  0.00000E+00  9.000E+00
      21    -1     0     0   511   512  0.000000000E+00  0.000000000E+00 -5.856149202E+01  5.856149202E+01  0.000000000E+00  0.00000E+00  9.000E+00
       6     2     1     2   502     0 -8.132764150E+01 -7.174100856E+00  2.820603554E+02  3.403052998E+02  1.720000000E+02  0.00000E+00  9.000E+00
      -6     2     1     2     0   512  1.304216367E+00  7.549310827E+00  2.729124118E+02  3.226823168E+02  1.720000000E+02  0.00000E+00  9.000E+00
      24     2     3     3     0     0 -6.456202295E+01 -2.871080751E+01  7.410553450E+01  1.305132939E+02  8.092913180E+01  0.00000E+00  9.000E+00
     -24     2     4     4     0     0 -2.737029978E+01 -5.569585532E+01  1.653248979E+02  1.945424925E+02  8.162902628E+01  0.00000E+00  9.000E+00
     -11     1     5     5     0     0 -5.746103889E+01  1.549829346E+01  2.646412503E+01  6.513307919E+01  1.261592536E-06  0.00000E+00  9.000E+00
      12     1     5     5     0     0 -7.100984055E+00 -4.420910097E+01  4.764140947E+01  6.538021474E+01  0.000000000E+00  0.00000E+00  9.000E+00
      13     1     6     6     0     0 -2.369552687E+00 -6.901719895E+01  8.590109525E+01  1.102179055E+02  9.536743164E-07  0.00000E+00  9.000E+00
     -14     1     6     6     0     0 -2.500074709E+01  1.332134363E+01  7.942380264E+01  8.432458702E+01  9.536743164E-07  0.00000E+00  9.000E+00
       5     1     3     3   502     0 -1.676561855E+01  2.153670665E+01  2.079548209E+02  2.097920059E+02  4.750000000E+00  0.00000E+00  9.000E+00
      -5     1     4     4     0   512  2.867451615E+01  6.324516615E+01  1.075875139E+02  1.281398243E+02  4.750000000E+00  0.00000E+00  9.000E+00
       2     1     1     2   511     0  8.002342513E+01 -3.752099715E-01  3.469937316E+02  3.561018662E+02  6.607249480E-06  0.00000E+00  9.000E+00
</event>
<event>
     13  10001  1.00000E+00  8.23743E+01 -1.00000E+00  1.30284E-01
       1    -1     0     0   502     0  0.000000000E+00  0.000000000E+00  3.516168237E+02  3.516168237E+02  0.000000000E+00  0.00000E+00  9.000E+00
      21    -1     0     0   513   512  0.000000000E+00  0.000000000E+00 -4.056300038E+02  4.056300038E+02  0.000000000E+00  0.00000E+00  9.000E+00
       6     2     1     2   502     0  5.235196067E+01  1.657375929E+01  2.091725313E+02  2.763196792E+02  1.720000000E+02  0.00000E+00  9.000E+00
      -6     2     1     2     0   512 -3.885588668E+01 -9.783491827E+01 -3.218444387E+02  3.798016507E+02  1.720000000E+02  0.00000E+00  9.000E+00
      24     2     3     3     0     0  9.963804341E+01  3.330005267E+01  1.429373196E+02  1.931006413E+02  7.628988872E+01  0.00000E+00  9.000E+00
     -24     2     4     4     0     0 -4.787341320E+01 -1.135009315E+01 -2.514730937E+02  2.678390254E+02  7.796369919E+01  0.00000E+00  9.000E+00
     -11     1     5     5     0     0  3.176588464E+01 -2.422581566E+01  3.408942684E+01  5.251714571E+01  9.536743164E-07  0.00000E+00  9.000E+00
      12     1     5     5     0     0  6.787215878E+01  5.752586834E+01  1.088478928E+02  1.405834956E+02  1.348699152E-06  0.00000E+00  9.000E+00
      13     1     6     6     0     0 -2.188046531E+01 -4.181147174E+01 -1.781447457E+02  1.842891868E+02  1.907348633E-06  0.00000E+00  9.000E+00
     -14     1     6     6     0     0 -2.599294789E+01  3.046137860E+01 -7.332834795E+01  8.354983865E+01  1.651812370E-06  0.00000E+00  9.000E+00
       5     1     3     3   502     0 -4.728608275E+01 -1.672629338E+01  6.623521168E+01  8.321903795E+01  4.750000000E+00  0.00000E+00  9.000E+00
      -5     1     4     4     0   512  9.017526518E+00 -8.648482512E+01 -7.037134502E+01  1.119626253E+02  4.750000000E+00  0.00000E+00  9.000E+00
       1     1     1     2   513     0 -1.349607399E+01  8.126115898E+01  5.865872734E+01  1.011254976E+02  9.536743164E-07  0.00000E+00  9.000E+00
</event>
<event>
     13  10001  1.00000E+00  1.28193E+02 -1.00000E+00  1.21369E-01
       2    -1     0     0   502     0  0.000000000E+00  0.000000000E+00  4.123926990E+02  4.123926990E+02  0.000000000E+00  0.00000E+00  9.000E+00
      21    -1     0     0   503   504  0.000000000E+00  0.000000000E+00 -4.278967616E+02  4.278967616E+02  0.000000000E+00  0.00000E+00  9.000E+00
       6     2     1     2   502     0  1.116893496E+02 -6.170606902E+00 -3.373537067E+02  3.948469458E+02  1.720000000E+02  0.00000E+00  9.000E+00
      -6     2     1     2     0   504  1.143783141E+01 -2.951050818E+01  1.459551814E+02  2.277907133E+02  1.720000000E+02  0.00000E+00  9.000E+00
      24     2     3     3     0     0  9.252729732E+01  1.131156052E+01 -1.071546734E+02  1.631424619E+02  8.027506900E+01  0.00000E+00  9.000E+00
     -24     2     4     4     0     0  3.939052310E+00  2.157689886E+01  1.465051581E+02  1.759349535E+02  9.491189507E+01  0.00000E+00  9.000E+00
     -11     1     5     5     0     0  2.850921715E+00 -2.280245934E+01 -6.058784701E+00  2.376528516E+01  1.022006762E-06  0.00000E+00  9.000E+00
      12     1     5     5     0     0  8.967637560E+01  3.411401986E+01 -1.010958887E+02  1.393771767E+02  1.907348633E-06  0.00000E+00  9.000E+00
      13     1     6     6     0     0  3.120493258E+01  8.006021826E+00  1.414371640E+02  1.450596965E+02  2.697398305E-06  0.00000E+00  9.000E+00
     -14     1     6     6     0     0 -2.726588027E+01  1.357087704E+01  5.067994117E+00  3.087525700E+01  5.559551151E-07  0.00000E+00  9.000E+00
       5     1     3     3   502     0  1.916205230E+01 -1.748216742E+01 -2.301990333E+02  2.317044839E+02  4.750000000E+00  0.00000E+00  9.000E+00
      -5     1     4     4     0   504  7.498779100E+00 -5.108740704E+01 -5.499766850E-01  5.185575976E+01  4.750000000E+00  0.00000E+00  9.000E+00
       2     1     1     2   503     0 -1.231271810E+02  3.568111508E+01  1.758944627E+02  2.176518015E+02  1.907348633E-06  0.00000E+00  9.000E+00
</event>
<event>
     13  10001  1.00000E+00  1.65181E+01 -1.00000E+00  1.78350E-01
      21    -1     0     0   503   511  0.000000000E+00  0.000000000E+00  5.445836514E+02  5.445836514E+02  0.000000000E+00  0.00000E+00  9.000E+00
      21    -1     0     0   502   503  0.000000000E+00  0.000000000E+00 -4.474461630E+02  4.474461630E+02  0.000000000E+00  0.00000E+00  9.000E+00
       6     2     1     2   502     0  9.702335627E+00 -9.080256524E+01 -3.504841032E+02  4.009518023E+02  1.720000000E+02  0.00000E+00  9.000E+00
      -6     2     1     2     0   504 -5.729115390E+00  1.068357283E+02  7.182337347E+01  2.149169434E+02  1.720000000E+02  0.00000E+00  9.000E+00
      24     2     3     3     0     0 -4.666303424E+01 -6.051099900E+01 -2.970258805E+02  3.174354687E+02  8.186503121E+01  0.00000E+00  9.000E+00
     -24     2     4     4     0     0 -2.121298293E+01  1.354029604E+02  8.477429415E+01  1.796164370E+02  7.931854249E+01  0.00000E+00  9.000E+00
     -11     1     5     5     0     0 -3.839454323E+01  1.067804101E+01 -1.203758750E+02  1.268010757E+02  2.336015456E-06  0.00000E+00  9.000E+00
      12     1     5     5     0     0 -8.268491016E+00 -7.118904001E+01 -1.766500055E+02  1.906343930E+02  2.697398305E-06  0.00000E+00  9.000E+00
      13     1     6     6     0     0  5.405826868E+00  1.836772954E+01  5.168072480E+01  5.511346268E+01  9.536743164E-07  0.00000E+00  9.000E+00
     -14     1     6     6     0     0 -2.661880980E+01  1.170352308E+02  3.309356935E+01  1.245029744E+02  2.567846683E-06  0.00000E+00  9.000E+00
       5     1     3     3   502     0  5.636536987E+01 -3.029156624E+01 -5.345822273E+01  8.351633363E+01  4.750000000E+00  0.00000E+00  9.000E+00
      -5     1     4     4     0   504  1.548386754E+01 -2.856723212E+01 -1.295092068E+01  3.530050639E+01  4.750000000E+00  0.00000E+00  9.000E+00
      21     1     1     2   504   511 -3.973220237E+00 -1.603316301E+01  3.757982181E+02  3.761610686E+02  7.629394531E-06  0.00000E+00  9.000E+00
</event>
<event>
     13  10001  1.00000E+00  3.49981E+01 -1.00000E+00  1.52015E-01
      21    -1     0     0   503   504  0.000000000E+00  0.000000000E+00  3.342174689E+02  3.342174689E+02  0.000000000E+00  0.00000E+00  9.000E+00
      21    -1     0     0   502   512  0.000000000E+00  0.000000000E+00 -2.010219129E+02  2.010219129E+02  0.000000000E+00  0.00000E+00  9.000E+00
       6     2     1     2   502     0 -2.693864967E+01  1.433905611E+02 -1.671637757E+01  2.261636159E+02  1.720000000E+02  0.00000E+00  9.000E+00
      -6     2     1     2     0   504 -4.879956762E+00 -1.579659667E+02  1.414347328E+02  2.730656410E+02  1.720000000E+02  0.00000E+00  9.000E+00
      24     2     3     3     0     0 -8.243655203E+01  7.424536623E+01 -7.172573977E+00  1.368623178E+02  7.982285834E+01  0.00000E+00  9.000E+00
     -24     2     4     4     0     0 -3.216769022E+01 -1.311137921E+01  4.701354650E+01  9.795026513E+01  7.859587982E+01  0.00000E+00  9.000E+00
     -11     1     5     5     0     0 -4.757417607E+01  8.619077575E+01 -1.382462924E+01  9.941464896E+01  3.769728732E-07  0.00000E+00  9.000E+00
      12     1     5     5     0     0 -3.486237596E+01 -1.194540953E+01  6.652055259E+00  3.744766889E+01  4.768371582E-07  0.00000E+00  9.000E+00
      13     1     6     6     0     0 -2.566237540E+01 -4.017777197E-01  6.793483998E+01  7.262135650E+01  1.348699152E-06  0.00000E+00  9.000E+00
     -14     1     6     6     0     0 -6.505314824E+00 -1.270960149E+01 -2.092129349E+01  2.532890863E+01  7.152557373E-07  0.00000E+00  9.000E+00
       5     1     3     3   502     0  5.549790235E+01  6.914519487E+01 -9.543803589E+00  8.930129801E+01  4.750000000E+00  0.00000E+00  9.000E+00
      -5     1     4     4     0   504  2.728773346E+01 -1.448545875E+02  9.442118631E+01  1.751153758E+02  4.750000000E+00  0.00000E+00  9.000E+00
      21     1     1     2   503   512  3.181860643E+01  1.457540566E+01  8.477200811E+00  3.601012495E+01  5.331201500E-07  0.00000E+00  9.000E+00
</event>
<event>
     13  10001  1.00000E+00  3.68815E+01 -1.00000E+00  1.50472E-01
      21    -1     0     0   503   504  0.000000000E+00  0.000000000E+00  3.030114065E+02  3.030114065E+02  0.000000000E+00  0.00000E+00  9.000E+00
      21    -1     0     0   511   503  0.000000000E+00  0.000000000E+00 -8.387997124E+02  8.387997124E+02  0.000000000E+00  0.00000E+00  9.000E+00
       6     2     1     2   502     0 -7.678075109E+01 -5.529854524E+01  1.671688096E+02  2.578422459E+02  1.720000000E+02  0.00000E+00  9.000E+00
      -6     2     1     2     0   504  1.012235488E+02  8.291724679E+01 -3.975325678E+01  2.197402969E+02  1.720000000E+02  0.00000E+00  9.000E+00
      24     2     3     3     0     0 -2.638550417E+01  2.921623327E+01  1.174661026E+02  1.475002761E+02  8.005162761E+01  0.00000E+00  9.000E+00
     -24     2     4     4     0     0  1.369138877E+02  7.179318782E+01 -4.675413693E+01  1.814111983E+02  8.260992129E+01  0.00000E+00  9.000E+00
     -11     1     5     5     0     0  4.506812605E+00  3.106566702E+01  6.182923969E+00  3.199399281E+01  9.902267293E-07  0.00000E+00  9.000E+00
      12     1     5     5     0     0 -3.089231678E+01 -1.849433748E+00  1.112831786E+02  1.155062833E+02  1.348699152E-06  0.00000E+00  9.000E+00
      13     1     6     6     0     0  5.690272278E+01 -1.282196047E+01 -9.191476302E+00  5.904918092E+01  1.118282261E-06  0.00000E+00  9.000E+00
     -14     1     6     6     0     0  8.001116489E+01  8.461514829E+01 -3.756266063E+01  1.223620174E+02  2.336015456E-06  0.00000E+00  9.000E+00
       5     1     3     3   502     0 -5.039524692E+01 -8.451477851E+01  4.970270702E+01  1.103419697E+02  4.750000000E+00  0.00000E+00  9.000E+00
      -5     1     4     4     0   504 -3.569033885E+01  1.112405897E+01  7.000880147E+00  3.832909858E+01  4.750000000E+00  0.00000E+00  9.000E+00
      21     1     1     2   511   502 -2.444279773E+01 -2.761870155E+01 -6.632038588E+02  6.642285761E+02  0.000000000E+00  0.00000E+00  9.000E+00
</event>
<event>
     13  10001  1.00000E+00  1.37138E+02 -1.00000E+00  1.20118E-01
      21    -1     0     0   513   512  0.000000000E+00  0.000000000E+00  2.119899652E+02  2.119899652E+02  0.000000000E+00  0.00000E+00  9.000E+00
       2    -1     0     0   502     0  0.000000000E+00  0.000000000E+00 -4.972805439E+02  4.972805439E+02  0.000000000E+00  0.00000E+00  9.000E+00
       6     2     1     2   502     0 -1.349267477E+02  3.879897135E+01 -2.066937635E+02  3.033428741E+02  1.720000000E+02  0.00000E+00  9.000E+00
      -6     2     1     2     0   512  1.195535526E+01  2.190524224E+01 -1.683994888E+02  2.420023925E+02  1.720000000E+02  0.00000E+00  9.000E+00
      24     2     3     3     0     0 -8.658475513E+01 -4.388462946E+01 -1.246949856E+02  1.771688350E+02  8.010727881E+01  0.00000E+00  9.000E+00
     -24     2     4     4     0     0 -2.457414934E+01 -3.112598345E+01 -1.507264526E+02  1.750575323E+02  7.971173331E+01  0.00000E+00  9.000E+00
     -11     1     5     5     0     0 -2.501296394E+00  1.505126957E+01  4.820276213E-01  1.526530544E+01  8.949229768E-07  0.00000E+00  9.000E+00
      12     1     5     5     0     0 -8.408345874E+01 -5.893589903E+01 -1.251770133E+02  1.619035295E+02  2.697398305E-06  0.00000E+00  9.000E+00
      13     1     6     6     0     0 -2.865566674E+01  6.399133785E+00 -1.274864874E+01  3.200975155E+01  4.460403188E-07  0.00000E+00  9.000E+00
     -14     1     6     6     0     0  4.081517405E+00 -3.752511724E+01 -1.379778039E+02  1.430477807E+02  1.907348633E-06  0.00000E+00  9.000E+00
       5     1     3     3   502     0 -4.834199261E+01  8.268360082E+01 -8.199877782E+01  1.261740392E+02  4.750000000E+00  0.00000E+00  9.000E+00
      -5     1     4     4     0   512  3.652950460E+01  5.303122569E+01 -1.767303619E+01  6.694486025E+01  4.750000000E+00  0.00000E+00  9.000E+00
       2     1     1     2   513     0  1.229713925E+02 -6.070421359E+01  8.980267363E+01  1.639252424E+02  1.651812370E-06  0.00000E+00  9.000E+00
</event>
<event>
     13  10001  1.00000E+00  2.19704E+02 -1.00000E+00  1.12060E-01
      21    -1     0     0   503   504  0.000000000E+00  0.000000000E+00  8.310538032E+02  8.310538032E+02  0.000000000E+00  0.00000E+00  9.000E+00
       2    -1     0     0   502     0  0.000000000E+00  0.000000000E+00 -5.738882056E+02  5.738882056E+02  0.000000000E+00  0.00000E+00  9.000E+00
       6     2     1     2   502     0 -5.329264067E+01  1.252307270E+01  3.562846340E+02  3.993991404E+02  1.720000000E+02  0.00000E+00  9.000E+00
      -6     2     1     2     0   504 -1.092248571E+02 -1.603677581E+02  3.905826515E+02  4.688141369E+02  1.720000000E+02  0.00000E+00  9.000E+00
      24     2     3     3     0     0 -3.686769250E+01 -5.073444066E+01  2.862309597E+02  3.034753597E+02  7.896785050E+01  0.00000E+00  9.000E+00
     -24     2     4     4     0     0 -6.411231446E+01 -3.708940924E+01  8.710059324E+01  1.381230196E+02  7.749478737E+01  0.00000E+00  9.000E+00
     -11     1     5     5     0     0 -2.363233666E+01 -3.974458166E+01  5.609104629E+01  7.269335996E+01  1.348699152E-06  0.00000E+00  9.000E+00
      12     1     5     5     0     0 -1.323535584E+01 -1.098985900E+01  2.301399135E+02  2.307819998E+02  2.697398305E-06  0.00000E+00  9.000E+00
      13     1     6     6     0     0 -1.360070255E+01 -4.933385495E+01  2.443564977E+01  5.670898812E+01  1.011524364E-06  0.00000E+00  9.000E+00
     -14     1     6     6     0     0 -5.051161191E+01  1.224444571E+01  6.266494348E+01  8.141403153E+01  2.023048729E-06  0.00000E+00  9.000E+00
       5     1     3     3   502     0 -1.642494817E+01  6.325751336E+01  7.005367425E+01  9.592378065E+01  4.750000000E+00  0.00000E+00  9.000E+00
      -5     1     4     4     0   504 -4.511254262E+01 -1.232783489E+02  3.034820583E+02  3.306911172E+02  4.750000000E+00  0.00000E+00  9.000E+00
       2     1     1     2   503     0  1.625174977E+02  1.478446854E+02 -4.897016880E+02  5.367287316E+02  7.629394531E-06  0.00000E+00  9.000E+00
</event>
<event>
     13  10001  1.00000E+00  2.79135E+01 -1.00000E+00  1.59066E-01
      21    -1     0     0   502   511  0.000000000E+00  0.000000000E+00  2.153667928E+02  2.153667928E+02  0.000000000E+00  0.00000E+00  9.000E+00
      21    -1     0     0   503   504  0.000000000E+00  0.000000000E+00 -2.329763578E+02  2.329763578E+02  0.000000000E+00  0.00000E+00  9.000E+00
       6     2     1     2   502     0 -3.953702793E+01  1.026382615E+02  4.784237986E+01  2.096918754E+02  1.720000000E+02  0.00000E+00  9.000E+00
      -6     2     1     2     0   504  1.328809225E+01 -9.314313015E+01 -7.385360851E+01  2.095007675E+02  1.720000000E+02  0.00000E+00  9.000E+00
      24     2     3     3     0     0  4.044254393E+00  2.224397116E+01 -3.014449117E+01  8.941268085E+01  8.108505968E+01  0.00000E+00  9.000E+00
     -24     2     4     4     0     0  4.976616898E+01 -1.149333335E+02 -3.867462725E+01  1.541330308E+02  8.108589071E+01  0.00000E+00  9.000E+00
     -11     1     5     5     0     0  1.936594218E+01  1.954558402E+01  2.185330771E+01  3.513739644E+01  4.129530925E-07  0.00000E+00  9.000E+00
      12     1     5     5     0     0 -1.532168779E+01  2.698387142E+00 -5.199779887E+01  5.427528441E+01  1.168007728E-06  0.00000E+00  9.000E+00
      13     1     6     6     0     0  3.317179924E+01 -2.491811632E+00  2.223036849E+00  3.333945535E+01  6.556510925E-07  0.00000E+00  9.000E+00
     -14     1     6     6     0     0  1.659436974E+01 -1.124415218E+02 -4.089766409E+01  1.207935755E+02  2.185142372E-06  0.00000E+00  9.000E+00
       5     1     3     3   502     0 -4.358128232E+01  8.039429039E+01  7.798687103E+01  1.202791946E+02  4.750000000E+00  0.00000E+00  9.000E+00
      -5     1     4     4     0   504 -3.647807673E+01  2.179020333E+01 -3.517898127E+01  5.536773669E+01  4.750000000E+00  0.00000E+00  9.000E+00
      21     1     1     2   503   511  2.624893568E+01 -9.495131400E+00  8.401663629E+00  2.915050765E+01  4.915124924E-07  0.00000E+00  9.000E+00
</event>
<event>
     13  10001  1.00000E+00  7.80500E+01 -1.00000E+00  1.31464E-01
       1    -1     0     0   502     0  0.000000000E+00  0.000000000E+00  1.623015410E+03  1.623015410E+03  0.000000000E+00  0.00000E+00  9.000E+00
      21    -1     0     0   503   504  0.000000000E+00  0.000000000E+00 -9.592856418E+01  9.592856418E+01  0.000000000E+00  0.00000E+00  9.000E+00
       6     2     1     2   502     0  9.629300637E+01 -3.181619474E+01  2.461543829E+02  3.169551917E+02  1.720000000E+02  0.00000E+00  9.000E+00
      -6     2     1     2     0   504 -9.121506918E+01  1.097008560E+02  1.517754268E+02  2.701374592E+02  1.720000000E+02  0.00000E+00  9.000E+00
      24     2     3     3     0     0  5.428045973E+01  5.595644762E+01  1.084877171E+02  1.483023998E+02  6.439351444E+01  0.00000E+00  9.000E+00
     -24     2     4     4     0     0 -1.257649996E+02  6.214956598E+01  9.315530671E+01  1.869887739E+02  8.128644862E+01  0.00000E+00  9.000E+00
     -11     1     5     5     0     0  8.673273535E+00  3.804843917E+01  8.590113869E+01  9.434996039E+01  9.536743164E-07  0.00000E+00  9.000E+00
      12     1     5     5     0     0  4.560718620E+01  1.790800845E+01  2.258657840E+01  5.395243946E+01  5.840038640E-07  0.00000E+00  9.000E+00
      13     1     6     6     0     0 -5.893391630E+01  7.078821593E+01  3.697141743E+01  9.925252496E+01  1.066240300E-06  0.00000E+00  9.000E+00
     -14     1     6     6     0     0 -6.683108330E+01 -8.638649942E+00  5.618388928E+01  8.773624896E+01  2.132480600E-06  0.00000E+00  9.000E+00
       5     1     3     3   502     0  4.201254664E+01 -8.777264237E+01  1.376666658E+02  1.686527919E+02  4.750000000E+00  0.00000E+00  9.000E+00
      -5     1     4     4     0   504  3.454993041E+01  4.755129005E+01  5.862012010E+01  8.314868524E+01  4.750000000E+00  0.00000E+00  9.000E+00
       1     1     1     2   503     0 -5.077937189E+00 -7.788466129E+01  1.129157036E+03  1.131851324E+03  1.525878906E-05  0.00000E+00  9.000E+00
</event>
<event>
     13  10001  1.00000E+00  5.84852E+01 -1.00000E+00  1.38168E-01
      -1    -1     0     0     0   504  0.000000000E+00  0.000000000E+00  1.446375408E+02  1.446375408E+02  0.000000000E+00  0.00000E+00  9.000E+00
      21    -1     0     0   502   503  0.000000000E+00  0.000000000E+00 -4.771749934E+02  4.771749934E+02  0.000000000E+00  0.00000E+00  9.000E+00
       6     2     1     2   502     0  1.806025577E+01 -1.206084482E+02 -6.511629687E+01  2.206732941E+02  1.720000000E+02  0.00000E+00  9.000E+00
      -6     2     1     2     0   504 -1.639866247E+01  6.214683699E+01 -2.859166498E+02  3.397991703E+02  1.720000000E+02  0.00000E+00  9.000E+00
      24     2     3     3     0     0 -1.503939386E+00 -1.486893342E+01  1.870728860E+01  8.424544249E+01  8.077118867E+01  0.00000E+00  9.000E+00
     -24     2     4     4     0     0  3.311150758E+01 -1.547801696E+01 -1.197386852E+02  1.497608759E+02  8.218896693E+01  0.00000E+00  9.000E+00
     -11     1     5     5     0     0 -1.154257798E+01 -4.661652168E+01  1.685815410E+01  5.089723528E+01  1.545128989E-06  0.00000E+00  9.000E+00
      12     1     5     5     0     0  1.003863859E+01  3.174758826E+01  1.849134503E+00  3.334820720E+01  1.639940321E-06  0.00000E+00  9.000E+00
      13     1     6     6     0     0  1.387434489E+01 -1.491847514E+01 -1.274206381E+02  1.290390537E+02  1.348699152E-06  0.00000E+00  9.000E+00
     -14     1     6     6     0     0  1.923716270E+01 -5.595418214E-01  7.681952972E+00  2.072182225E+01  1.115100797E-06  0.00000E+00  9.000E+00
       5     1     3     3   502     0  1.956419516E+01 -1.057395147E+02 -8.382358548E+01  1.364278516E+02  4.750000000E+00  0.00000E+00  9.000E+00
      -5     1     4     4     0   504 -4.951017006E+01  7.762485395E+01 -1.661779647E+02  1.900382944E+02  4.750000000E+00  0.00000E+00  9.000E+00
      -1     1     1     2     0   503 -1.661593297E+00  5.846161117E+01  1.849549410E+01  6.134006990E+01  1.634515429E-06  0.00000E+00  9.000E+00
</event>
<event>
     13  10001  1.00000E+00  1.29756E+02 -1.00000E+00  1.21143E-01
      21    -1     0     0   502   503  0.000000000E+00  0.000000000E+00  6.204796765E+01  6.204796765E+01  0.000000000E+00  0.00000E+00  9.000E+00
       1    -1     0     0   503     0  0.000000000E+00  0.000000000E+00 -1.234783043E+03  1.234783043E+03  0.000000000E+00  0.00000E+00  9.000E+00
       6     2     1     2   502     0 -2.751487116E+01 -1.621509664E+01 -2.584903634E+02  3.121237983E+02  1.720000000E+02  0.00000E+00  9.000E+00
      -6     2     1     2     0   504  1.447191356E+02  7.189157901E+01 -5.965899405E+02  6.415727429E+02  1.720000000E+02  0.00000E+00  9.000E+00
      24     2     3     3     0     0  4.681366149E+01 -3.309227616E+01 -1.524960879E+02  1.814833800E+02  7.996588490E+01  0.00000E+00  9.000E+00
     -24     2     4     4     0     0  3.516712572E+00  1.000740082E+01 -2.417524568E+02  2.546619287E+02  7.934691075E+01  0.00000E+00  9.000E+00
     -11     1     5     5     0     0 -3.396667202E+00 -4.339549226E+01 -9.475143267E+01  1.042714730E+02  1.348699152E-06  0.00000E+00  9.000E+00
      12     1     5     5     0     0  5.021032869E+01  1.030321610E+01 -5.774465524E+01  7.721190697E+01  1.651812370E-06  0.00000E+00  9.000E+00
      13     1     6     6     0     0 -5.018745300E+00 -3.031528521E+01 -5.128423046E+01  5.978525417E+01  1.168007728E-06  0.00000E+00  9.000E+00
     -14     1     6     6     0     0  8.535457872E+00  4.032268604E+01 -1.904682263E+02  1.948766746E+02  2.697398305E-06  0.00000E+00  9.000E+00
       5     1     3     3   502     0 -7.432853265E+01  1.687717952E+01 -1.059942754E+02  1.306404182E+02  4.750000000E+00  0.00000E+00  9.000E+00
      -5     1     4     4     0   504  1.412024230E+02  6.188417819E+01 -3.548374837E+02  3.869108142E+02  4.750000000E+00  0.00000E+00  9.000E+00
       1     1     1     2   504     0 -1.172042644E+02 -5.567648237E+01 -3.176547714E+02  3.431344694E+02  5.394796609E-06  0.00000E+00  9.000E+00
</event>
<event>
     13  10001  1.00000E+00  3.76232E+01 -1.00000E+00  1.49894E-01
      21    -1     0     0   502   503  0.000000000E+00  0.000000000E+00  4.461518679E+02  4.461518679E+02  0.000000000E+00  0.00000E+00  9.000E+00
      21    -1     0     0   503   511  0.000000000E+00  0.000000000E+00 -3.551578334E+02  3.551578334E+02  0.000000000E+00  0.00000E+00  9.000E+00
       6     2     1     2   502     0  1.500779493E+02 -1.283912914E+02 -1.465569466E+02  3.001177322E+02  1.720000000E+02  0.00000E+00  9.000E+00
      -6     2     1     2     0   504 -1.531658333E+02  9.089501775E+01  3.234939854E+02  4.073745639E+02  1.720000000E+02  0.00000E+00  9.000E+00
      24     2     3     3     0     0  1.531665533E+02 -1.250701398E+02 -7.186775050E+01  2.251403486E+02  8.012908391E+01  0.00000E+00  9.000E+00
     -24     2     4     4     0     0 -5.654647095E+01 -1.700033776E+01  1.038427288E+02  1.442283195E+02  8.082067164E+01  0.00000E+00  9.000E+00
     -11     1     5     5     0     0  1.739944991E+01 -5.421993648E+01 -2.440052246E+00  5.699558074E+01  4.833124501E-07  0.00000E+00  9.000E+00
      12     1     5     5     0     0  1.357671034E+02 -7.085020334E+01 -6.942769825E+01  1.681447679E+02  1.348699152E-06  0.00000E+00  9.000E+00
      13     1     6     6     0     0 -4.759289258E+01  2.025593728E+01  8.939009674E+01  1.032762113E+02  2.132480600E-06  0.00000E+00  9.000E+00
     -14     1     6     6     0     0 -8.953578372E+00 -3.725627505E+01  1.445263206E+01  4.095210824E+01  7.348554138E-07  0.00000E+00  9.000E+00
       5     1     3     3   502     0 -3.088604075E+00 -3.321151553E+00 -7.468919612E+01  7.497738352E+01  4.750000000E+00  0.00000E+00  9.000E+00
      -5     1     4     4     0   504 -9.661936232E+01  1.078953555E+02  2.196512566E+02  2.631462444E+02  4.750000000E+00  0.00000E+00  9.000E+00
      21     1     1     2   504   511  3.087884003E+00  3.749627361E+01 -8.594300417E+01  9.381740526E+01  0.000000000E+00  0.00000E+00  9.000E+00
</event>
<event>
     13  10001  1.00000E+00  1.37040E+02 -1.00000E+00  1.20131E-01
       2    -1     0     0   503     0  0.000000000E+00  0.000000000E+00  9.938184651E+02  9.938184651E+02  0.000000000E+00  0.00000E+00  9.000E+00
      21    -1     0     0   502   503  0.000000000E+00  0.000000000E+00 -8.428802179E+01  8.428802179E+01  0.000000000E+00  0.00000E+00  9.000E+00
       6     2     1     2   502     0 -4.445679726E+01 -9.950770535E+01  2.043021774E+02  2.884468234E+02  1.720000000E+02  0.00000E+00  9.000E+00
      -6     2     1     2     0   504 -6.140910698E+01  1.248796406E+01  2.239358809E+02  2.892374568E+02  1.720000000E+02  0.00000E+00  9.000E+00
      24     2     3     3     0     0 -4.062380685E+01 -3.625829000E+01  2.691864709E+01  1.000253287E+02  7.947009208E+01  0.00000E+00  9.000E+00
     -24     2     4     4     0     0 -3.669652078E+01  7.314795502E+01  1.691360310E+02  2.037042324E+02  7.868392065E+01  0.00000E+00  9.000E+00
     -11     1     5     5     0     0 -2.757907996E+01  7.683188919E+00 -1.961765991E+01  3.470575779E+01  6.743495762E-07  0.00000E+00  9.000E+00
      12     1     5     5     0     0 -1.304472689E+01 -4.394147892E+01  4.653630700E+01  6.531957087E+01  6.743495762E-07  0.00000E+00  9.000E+00
      13     1     6     6     0     0 -3.359070927E+01  2.525533484E+01  1.430173610E+02  1.490641917E+02  2.697398305E-06  0.00000E+00  9.000E+00
     -14     1     6     6     0     0 -3.105811506E+00  4.789262019E+01  2.611866999E+01  5.464004077E+01  1.877309769E-06  0.00000E+00  9.000E+00
       5     1     3     3   502     0 -3.832990404E+00 -6.324941535E+01  1.773835303E+02  1.884214948E+02  4.750000000E+00  0.00000E+00  9.000E+00
      -5     1     4     4     0   504 -2.471258620E+01 -6.065999097E+01  5.479984986E+01  8.553322434E+01  4.750000000E+00  0.00000E+00  9.000E+00
       2     1     1     2   504     0  1.058659042E+02  8.701974129E+01  4.812923850E+02  5.004222067E+02  5.394796609E-06  0.00000E+00  9.000E+00
</event>
<event>
     13  10001  1.00000E+00  4.51845E+01 -1.00000E+00  1.44787E-01
      21    -1     0     0   511   503  0.000000000E+00  0.000000000E+00  1.444849773E+03  1.444849773E+03  0.000000000E+00  0.00000E+00  9.000E+00
      21    -1     0     0   503   504  0.000000000E+00  0.000000000E+00 -1.082374252E+02  1.082374252E+02  0.000000000E+00  0.00000E+00  9.000E+00
       6     2     1     2   502     0  1.098457687E+02 -8.045789317E+00  2.161650857E+02  2.973922862E+02  1.720000000E+02  0.00000E+00  9.000E+00
      -6     2     1     2     0   504 -6.510232542E+01  1.434342577E+01  5.955710892E+01  1.938429670E+02  1.720000000E+02  0.00000E+00  9.000E+00
      24     2     3     3     0     0  3.764480742E+01  5.587344008E+01  8.571576793E+01  1.351017021E+02  7.978912331E+01  0.00000E+00  9.000E+00
     -24     2     4     4     0     0  1.305595218E+01 -3.711394591E+01  3.337762209E+01  9.655727696E+01  8.161702770E+01  0.00000E+00  9.000E+00
     -11     1     5     5     0     0 -2.083810079E+01 -7.614463580E-02  3.119655126E+01  3.751609059E+01  3.371747881E-07  0.00000E+00  9.000E+00
      12     1     5     5     0     0  5.848290821E+01  5.594958471E+01  5.451921666E+01  9.758561148E+01  1.784161275E-06  0.00000E+00  9.000E+00
      13     1     6     6     0     0 -1.785950522E+01 -3.920255396E+01  4.606931815E+01  6.307284866E+01  6.743495762E-07  0.00000E+00  9.000E+00
     -14     1     6     6     0     0  3.091545740E+01  2.088608050E+00 -1.269169606E+01  3.348442830E+01  9.386548846E-07  0.00000E+00  9.000E+00
       5     1     3     3   502     0  7.220096128E+01 -6.391922939E+01  1.304493178E+02  1.622905842E+02  4.750000000E+00  0.00000E+00  9.000E+00
      -5     1     4     4     0   504 -7.815827760E+01  5.145737168E+01  2.617948683E+01  9.728569005E+01  4.750000000E+00  0.00000E+00  9.000E+00
      21     1     1     2   511   502 -4.474344328E+01 -6.297636449E+00  1.060890154E+03  1.061851945E+03  0.000000000E+00  0.00000E+00  9.000E+00
</event>
<event>
     13  10001  1.00000E+00  1.79065E+02 -1.00000E+00  1.15417E-01
      21    -1     0     0   502   503  0.000000000E+00  0.000000000E+00  2.609013359E+02  2.609013359E+02  0.000000000E+00  0.00000E+00  9.000E+00
       2    -1     0     0   503     0  0.000000000E+00  0.000000000E+00 -1.536163295E+03  1.536163295E+03  0.000000000E+00  0.00000E+00  9.000E+00
       6     2     1     2   502     0 -2.009458233E+02  1.487860844E+02 -1.041246804E+01  3.036592536E+02  1.720000000E+02  0.00000E+00  9.000E+00
      -6     2     1     2     0   504  2.449292032E+01 -1.792627075E+02 -3.675981724E+01  2.523297557E+02  1.720000000E+02  0.00000E+00  9.000E+00
      24     2     3     3     0     0 -1.719851810E+02  1.791072379E+02 -5.722166745E+00  2.612015974E+02  8.084074547E+01  0.00000E+00  9.000E+00
     -24     2     4     4     0     0  1.671365728E+01 -1.872816169E+02 -7.255281097E+01  2.145339790E+02  7.353344406E+01  0.00000E+00  9.000E+00
     -11     1     5     5     0     0 -1.569494010E+02  1.585693649E+02 -3.109153075E+01  2.252643808E+02  4.304759523E-06  0.00000E+00  9.000E+00
      12     1     5     5     0     0 -1.503578001E+01  2.053787302E+01  2.536936401E+01  3.593721663E+01  4.768371582E-07  0.00000E+00  9.000E+00
      13     1     6     6     0     0 -1.663456807E+01 -6.881841408E+00 -1.064548890E+01  2.091399125E+01  4.129530925E-07  0.00000E+00  9.000E+00
     -14     1     6     6     0     0  3.334822534E+01 -1.803997754E+02 -6.190732207E+01  1.936199877E+02  4.768371582E-06  0.00000E+00  9.000E+00
       5     1     3     3   502     0 -2.896064224E+01 -3.032115345E+01 -4.690301291E+00  4.245765622E+01  4.750000000E+00  0.00000E+00  9.000E+00
      -5     1     4     4     0   504  7.779263044E+00  8.018909330E+00  3.579299373E+01  3.779577676E+01  4.750000000E+00  0.00000E+00  9.000E+00
       2     1     1     2   504     0  1.764529029E+02  3.047662307E+01 -1.228089674E+03  1.241075622E+03  0.000000000E+00  0.00000E+00  9.000E+00
</event>
<event>
     13  10001  1.00000E+00  5.95634E+00 -1.00000E+00  2.34408E-01
       1    -1     0     0   502     0  0.000000000E+00  0.000000000E+00  1.814343217E+02  1.814343217E+02  0.000000000E+00  0.00000E+00  9.000E+00
      -1    -1     0     0     0   511  0.000000000E+00  0.000000000E+00 -4.011722777E+02  4.011722777E+02  0.000000000E+00  0.00000E+00  9.000E+00
       6     2     1     2   502     0 -9.173279481E+01 -5.883079930E+01  2.674820243E+01  2.053665867E+02  1.720000000E+02  0.00000E+00  9.000E+00
      -6     2     1     2     0   512  8.579257235E+01  5.926872492E+01 -8.952062498E+01  2.201615078E+02  1.720000000E+02  0.00000E+00  9.000E+00
      24     2     3     3     0     0 -8.153890706E+01 -9.346787159E+01 -1.594477721E+01  1.492515697E+02  8.146753182E+01  0.00000E+00  9.000E+00
     -24     2     4     4     0     0  8.410025497E+01 -2.190709077E+01 -7.716554124E+01  1.378961592E+02  7.421628157E+01  0.00000E+00  9.000E+00
     -11     1     5     5     0     0 -1.167449383E+00 -2.476641607E+01 -3.390564435E+01  4.200394055E+01  1.168007728E-06  0.00000E+00  9.000E+00
      12     1     5     5     0     0 -8.037145768E+01 -6.870145552E+01  1.796086715E+01  1.072476291E+02  1.702649219E-06  0.00000E+00  9.000E+00
      13     1     6     6     0     0  1.660937675E+01 -4.029486104E+01 -3.740919222E+01  5.743687739E+01  6.743495762E-07  0.00000E+00  9.000E+00
     -14     1     6     6     0     0  6.749087822E+01  1.838777027E+01 -3.975634902E+01  8.045928179E+01  9.536743164E-07  0.00000E+00  9.000E+00
       5     1     3     3   502     0 -1.019388775E+01  3.463707229E+01  4.269297964E+01  5.611501702E+01  4.750000000E+00  0.00000E+00  9.000E+00
      -5     1     4     4     0   512  1.692317385E+00  8.117581569E+01 -1.235508374E+01  8.226534863E+01  4.750000000E+00  0.00000E+00  9.000E+00
      21     1     1     2   512   511  5.940222460E+00 -4.379256225E-01 -1.569655335E+02  1.570785050E+02  1.907348633E-06  0.00000E+00  9.000E+00
</event>
<event>
     13  10001  1.00000E+00  1.02806E+01 -1.00000E+00  2.00504E-01
      21    -1     0     0   502   503  0.000000000E+00  0.000000000E+00  5.354451661E+01  5.354451661E+01  0.000000000E+00  0.00000E+00  9.000E+00
      21    -1     0     0   513   504  0.000000000E+00  0.000000000E+00 -1.046210579E+03  1.046210579E+03  0.000000000E+00  0.00000E+00  9.000E+00
       6     2     1     2   502     0 -1.975529254E+01 -1.313256424E+02 -6.068720748E+02  6.446040731E+02  1.720000000E+02  0.00000E+00  9.000E+00
      -6     2     1     2     0   504  1.043959921E+01  1.356739662E+02 -3.162808609E+02  3.848817914E+02  1.720000000E+02  0.00000E+00  9.000E+00
      24     2     3     3     0     0  1.410935433E+01 -3.509961214E+01 -1.125416658E+02  1.398354341E+02  7.387330663E+01  0.00000E+00  9.000E+00
     -24     2     4     4     0     0 -1.865906515E+01  8.988113365E+01 -8.747449602E+01  1.496826610E+02  7.953824656E+01  0.00000E+00  9.000E+00
     -11     1     5     5     0     0 -2.212935610E+01 -3.830021420E+01 -7.800048111E+01  8.966989385E+01  2.132480600E-06  0.00000E+00  9.000E+00
      12     1     5     5     0     0  3.623871044E+01  3.200602056E+00 -3.454118467E+01  5.016554023E+01  1.168007728E-06  0.00000E+00  9.000E+00
      13     1     6     6     0     0  5.403200597E+00 -5.406287387E+00  9.107710964E+00  1.189003444E+01  4.915124924E-07  0.00000E+00  9.000E+00
     -14     1     6     6     0     0 -2.406226575E+01  9.528742103E+01 -9.658220699E+01  1.377926266E+02  4.264961200E-06  0.00000E+00  9.000E+00
       5     1     3     3   502     0 -3.386464688E+01 -9.622603028E+01 -4.943304090E+02  5.047686390E+02  4.750000000E+00  0.00000E+00  9.000E+00
      -5     1     4     4     0   504  2.909866436E+01  4.579283253E+01 -2.288063649E+02  2.351991303E+02  4.750000000E+00  0.00000E+00  9.000E+00
      21     1     1     2   513   503  9.315693332E+00 -4.348323755E+00 -6.951312700E+01  7.026923144E+01  9.536743164E-07  0.00000E+00  9.000E+00
</event>
<event>
     13  10001  1.00000E+00  3.16285E+01 -1.00000E+00  1.55090E-01
      21    -1     0     0   503   511  0.000000000E+00  0.000000000E+00  1.329593849E+02  1.329593849E+02  0.000000000E+00  0.00000E+00  9.000E+00
      21    -1     0     0   502   503  0.000000000E+00  0.000000000E+00 -5.409150238E+02  5.409150238E+02  0.000000000E+00  0.00000E+00  9.000E+00
       6     2     1     2   502     0  7.219782276E+01 -7.608886345E+01 -3.818194781E+02  4.317084139E+02  1.720000000E+02  0.00000E+00  9.000E+00
      -6     2     1     2     0   504 -5.257391153E+01  1.008933511E+02 -3.533435789E+01  2.092271525E+02  1.720000000E+02  0.00000E+00  9.000E+00
      24     2     3     3     0     0 -9.254892919E+00  1.383906800E+01 -1.423424534E+02  1.632062991E+02  7.808808615E+01  0.00000E+00  9.000E+00
     -24     2     4     4     0     0  3.340958633E+01  3.101218545E+01 -2.945354732E+01  9.817002457E+01  8.180394959E+01  0.00000E+00  9.000E+00
     -11     1     5     5     0     0  1.957854245E+01  3.543900154E+01 -9.826249628E+01  1.062768099E+02  1.348699152E-06  0.00000E+00  9.000E+00
      12     1     5     5     0     0 -2.883343536E+01 -2.159993353E+01 -4.407995710E+01  5.692948921E+01  8.259061849E-07  0.00000E+00  9.000E+00
      13     1     6     6     0     0 -1.935599464E+01  3.285606888E+01 -2.407851289E+01  4.509934117E+01  3.371747881E-07  0.00000E+00  9.000E+00
     -14     1     6     6     0     0  5.276558097E+01 -1.843883437E+00 -5.375034429E+00  5.307068340E+01  8.492354660E-07  0.00000E+00  9.000E+00
       5     1     3     3   502     0  8.145271568E+01 -8.992793146E+01 -2.394770248E+02  2.685021148E+02  4.750000000E+00  0.00000E+00  9.000E+00
      -5     1     4     4     0   504 -8.598349786E+01  6.988116570E+01 -5.880810576E+00  1.110571279E+02  4.750000000E+00  0.00000E+00  9.000E+00
      21     1     1     2   504   511 -1.962391123E+01 -2.480448769E+01  9.198197149E+00  3.293884230E+01  5.591411304E-07  0.00000E+00  9.000E+00
</event>
<event>
     13  10001  1.00000E+00  5.74150E+01 -1.00000E+00  1.38621E-01
      -3    -1     0     0     0   512  0.000000000E+00  0.000000000E+00  4.279822586E+02  4.279822586E+02  0.000000000E+00  0.00000E+00  9.000E+00
      21    -1     0     0   502   513  0.000000000E+00  0.000000000E+00 -1.916883878E+02  1.916883878E+02  0.000000000E+00  0.00000E+00  9.000E+00
       6     2     1     2   502     0 -1.228407812E+02 -1.523599333E+02  1.164124033E+02  2.853756374E+02  1.720000000E+02  0.00000E+00  9.000E+00
      -6     2     1     2     0   512  6.674177168E+01  1.645823942E+02  6.679896490E+01  2.561014062E+02  1.720000000E+02  0.00000E+00  9.000E+00
      24     2     3     3     0     0 -9.896711680E+01 -9.517214292E+01  5.615523833E+00  1.583366425E+02  7.865577706E+01  0.00000E+00  9.000E+00
     -24     2     4     4     0     0  6.345363786E+01  1.925644195E+02  5.483963386E+01  2.251273258E+02  8.104016028E+01  0.00000E+00  9.000E+00
     -11     1     5     5     0     0 -6.444058384E+01 -3.483552567E+01  3.699529965E+01  8.206555240E+01  6.743495762E-07  0.00000E+00  9.000E+00
      12     1     5     5     0     0 -3.452653296E+01 -6.033661725E+01 -3.137977582E+01  7.627109013E+01  1.752011592E-06  0.00000E+00  9.000E+00
      13     1     6     6     0     0  1.229302574E+01  8.178963809E+01  6.128432147E+01  1.029389695E+02  1.651812370E-06  0.00000E+00  9.000E+00
     -14     1     6     6     0     0  5.116061213E+01  1.107747814E+02 -6.444687606E+00  1.221883563E+02  1.121454699E-06  0.00000E+00  9.000E+00
       5     1     3     3   502     0 -2.387366435E+01 -5.718779039E+01  1.107968795E+02  1.270389949E+02  4.750000000E+00  0.00000E+00  9.000E+00
      -5     1     4     4     0   512  3.288133812E+00 -2.798202525E+01  1.195933104E+01  3.097408045E+01  4.750000000E+00  0.00000E+00  9.000E+00
      -3     1     1     2     0   513  5.609900948E+01 -1.222246090E+01  5.308250260E+01  7.819360266E+01  0.000000000E+00  0.00000E+00  9.000E+00
</event>
<event>
     13  10001  1.00000E+00  1.91637E+01 -1.00000E+00  1.72415E-01
      21    -1     0     0   511   503  0.000000000E+00  0.000000000E+00  1.711115097E+02  1.711115097E+02  0.000000000E+00  0.00000E+00  9.000E+00
      21    -1     0     0   503   504  0.000000000E+00  0.000000000E+00 -2.025136527E+02  2.025136527E+02  0.000000000E+00  0.00000E+00  9.000E+00
       6     2     1     2   502     0  3.673024673E+01  7.391046549E+00 -2.234694177E+01  1.774461169E+02  1.720000000E+02  0.00000E+00  9.000E+00
      -6     2     1     2     0   504 -3.821438908E+01  1.171512773E+01 -1.094755809E+01  1.769221094E+02  1.720000000E+02  0.00000E+00  9.000E+00
      24     2     3     3     0     0  2.944619285E+01  6.648500541E+01 -3.944802698E+01  1.153159066E+02  8.033851669E+01  0.00000E+00  9.000E+00
     -24     2     4     4     0     0 -9.675294950E+00  1.551100194E+01  5.849248098E+01  1.016003324E+02  8.103736608E+01  0.00000E+00  9.000E+00
     -11     1     5     5     0     0 -2.086548868E+01  1.834042933E+01 -3.616427707E+01  4.560257561E+01  8.259061849E-07  0.00000E+00  9.000E+00
      12     1     5     5     0     0  5.031168153E+01  4.814457609E+01 -3.283749906E+00  6.971333099E+01  2.256726625E-06  0.00000E+00  9.000E+00
      13     1     6     6     0     0  3.284792115E+01 -8.817146614E+00  2.606370130E+01  4.284909012E+01  8.259061849E-07  0.00000E+00  9.000E+00
     -14     1     6     6     0     0 -4.252321610E+01  2.432814855E+01  3.242877968E+01  5.875124230E+01  0.000000000E+00  0.00000E+00  9.000E+00
       5     1     3     3   502     0  7.284053876E+00 -5.909395887E+01  1.710108521E+01  6.213021029E+01  4.750000000E+00  0.00000E+00  9.000E+00
      -5     1     4     4     0   504 -2.853909413E+01 -3.795874213E+00 -6.944003907E+01  7.532177694E+01  4.750000000E+00  0.00000E+00  9.000E+00
      21     1     1     2   511   502  1.484142350E+00 -1.910617427E+01  1.892356849E+00  1.925693611E+01  3.161013638E-07  0.00000E+00  9.000E+00
</event>
<event>
     13  10001  1.00000E+00  2.11047E+01 -1.00000E+00  1.68774E-01
      21    -1     0     0   502   512  0.000000000E+00  0.000000000E+00  4.384209985E+02  4.384209985E+02  0.000000000E+00  0.00000E+00  9.000E+00
      21    -1     0     0   503   504  0.000000000E+00  0.000000000E+00 -1.176508834E+02  1.176508834E+02  0.000000000E+00  0.00000E+00  9.000E+00
       6     2     1     2   502     0  9.563421464E+01  3.315413508E+01  2.519549442E+02  3.214193423E+02  1.720000000E+02  0.00000E+00  9.000E+00
      -6     2     1     2     0   504 -7.557302382E+01 -3.970818054E+01  3.559013823E+01  1.952912683E+02  1.720000000E+02  0.00000E+00  9.000E+00
      24     2     3     3     0     0  3.173804630E+01 -6.001384559E+00  3.355352337E+01  9.046995784E+01  7.756064815E+01  0.00000E+00  9.000E+00
     -24     2     4     4     0     0  1.162847939E+01 -3.304937712E+01 -2.711268309E+01  8.757567923E+01  7.554415363E+01  0.00000E+00  9.000E+00
     -11     1     5     5     0     0  1.604302498E+01  8.571383066E+00  5.633690449E+01  5.920045663E+01  6.743495762E-07  0.00000E+00  9.000E+00
      12     1     5     5     0     0  1.569502131E+01 -1.457276762E+01 -2.278338112E+01  3.126950121E+01  7.539457465E-07  0.00000E+00  9.000E+00
      13     1     6     6     0     0  8.620703567E-01 -5.496112943E+01 -3.060422471E+01  6.291333312E+01  1.011524364E-06  0.00000E+00  9.000E+00
     -14     1     6     6     0     0  1.076640903E+01  2.191175232E+01  3.491541622E+00  2.466234612E+01  2.064765462E-07  0.00000E+00  9.000E+00
       5     1     3     3   502     0  6.389616834E+01  3.915551964E+01  2.184014209E+02  2.309493845E+02  4.750000000E+00  0.00000E+00  9.000E+00
      -5     1     4     4     0   504 -8.720150321E+01 -6.658803422E+00  6.270282132E+01  1.077155891E+02  4.750000000E+00  0.00000E+00  9.000E+00
      21     1     1     2   503   512 -2.006119082E+01  6.554045456E+00  3.322503260E+01  3.936127132E+01  4.768371582E-07  0.00000E+00  9.000E+00
</event>
<event>
     13  10001  1.00000E+00  3.86544E+02 -1.00000E+00  1.03741E-01
      21    -1     0     0   502   503  0.000000000E+00  0.000000000E+00  2.565779620E+02  2.565779620E+02  0.000000000E+00  0.00000E+00  9.000E+00
       2    -1     0     0   503     0  0.000000000E+00  0.000000000E+00 -2.315758686E+03  2.315758686E+03  0.000000000E+00  0.00000E+00  9.000E+00
       6     2     1     2   502     0  1.462477964E+02 -2.392102301E+02 -2.139842584E+02  3.924069507E+02  1.720000000E+02  0.00000E+00  9.000E+00
      -6     2     1     2     0   504 -9.903470772E+01 -1.444395206E+02  4.590818356E+01  2.497242675E+02  1.720000000E+02  0.00000E+00  9.000E+00
      24     2     3     3     0     0  1.419401382E+01 -1.203689902E+02 -7.294413999E+01  1.655230172E+02  8.594683140E+01  0.00000E+00  9.000E+00
     -24     2     4     4     0     0 -7.204274081E+01 -1.363971488E+01  4.558254620E+01  1.160836150E+02  7.759793054E+01  0.00000E+00  9.000E+00
     -11     1     5     5     0     0  6.199038149E+00 -1.714064681E+01 -5.814284724E+01  6.093291829E+01  0.000000000E+00  0.00000E+00  9.000E+00
      12     1     5     5     0     0  7.994975672E+00 -1.032283434E+02 -1.480129275E+01  1.045900989E+02  2.443063442E-06  0.00000E+00  9.000E+00
      13     1     6     6     0     0 -1.271473426E+00 -5.140327167E+00 -1.910621263E+01  1.982642098E+01  5.331201500E-07  0.00000E+00  9.000E+00
     -14     1     6     6     0     0 -7.077126738E+01 -8.499387709E+00  6.468875882E+01  9.625719400E+01  0.000000000E+00  0.00000E+00  9.000E+00
       5     1     3     3   502     0  1.320537826E+02 -1.188412399E+02 -1.410401184E+02  2.268839335E+02  4.750000000E+00  0.00000E+00  9.000E+00
      -5     1     4     4     0   504 -2.699196691E+01 -1.307998057E+02  3.256373642E-01  1.336406525E+02  4.750000000E+00  0.00000E+00  9.000E+00
       2     1     1     2   504     0 -4.721308871E+01  3.836497507E+02 -1.891104649E+03  1.930205430E+03  2.157918644E-05  0.00000E+00  9.000E+00
</event>
<event>
     13  10001  1.00000E+00  3.52286E+01 -1.00000E+00  1.51820E-01
      21    -1     0     0   511   504  0.000000000E+00  0.000000000E+00  5.402089611E+02  5.402089611E+02  0.000000000E+00  0.00000E+00  9.000E+00
      21    -1     0     0   502   503  0.000000000E+00  0.000000000E+00 -7.503982078E+01  7.503982078E+01  0.000000000E+00  0.00000E+00  9.000E+00
       6     2     1     2   502     0 -3.881746331E+01 -2.972198052E+01  2.750337532E+02  3.280514548E+02  1.720000000E+02  0.00000E+00  9.000E+00
      -6     2     1     2     0   504  2.391884363E+01 -2.201091619E+00  1.279016458E+02  2.156844614E+02  1.720000000E+02  0.00000E+00  9.000E+00
      24     2     3     3     0     0  6.377670233E+00  2.699345576E+01  2.220452061E+02  2.381093099E+02  8.137965693E+01  0.00000E+00  9.000E+00
     -24     2     4     4     0     0 -5.264186145E+01 -2.434787781E+00  8.330352367E+01  1.269536822E+02  8.000416614E+01  0.00000E+00  9.000E+00
     -11     1     5     5     0     0  3.824241208E+01  2.771189403E+01  8.336071200E+01  9.580939128E+01  2.523185073E-06  0.00000E+00  9.000E+00
      12     1     5     5     0     0 -3.186474184E+01 -7.184382674E-01  1.386844941E+02  1.422999186E+02  3.303624740E-06  0.00000E+00  9.000E+00
      13     1     6     6     0     0  2.113611398E+00  3.019885107E+01  1.594217805E+01  3.421390069E+01  2.920019320E-07  0.00000E+00  9.000E+00
     -14     1     6     6     0     0 -5.475547285E+01 -3.263363885E+01  6.736134562E+01  9.273978152E+01  1.651812370E-06  0.00000E+00  9.000E+00
       5     1     3     3   502     0 -4.519513354E+01 -5.671543628E+01  5.298854711E+01  8.994214492E+01  4.750000000E+00  0.00000E+00  9.000E+00
      -5     1     4     4     0   504  7.656070508E+01  2.336961622E-01  4.459812211E+01  8.873077917E+01  4.750000000E+00  0.00000E+00  9.000E+00
      21     1     1     2   511   503  1.489861968E+01  3.192307213E+01  6.223374127E+01  7.151286567E+01  0.000000000E+00  0.00000E+00  9.000E+00
</event>
<event>
     13  10001  1.00000E+00  1.88950E+01 -1.00000E+00  1.72961E-01
      21    -1     0     0   503   504  0.000000000E+00  0.000000000E+00  2.124713740E+02  2.124713740E+02  0.000000000E+00  0.00000E+00  9.000E+00
       2    -1     0     0   502     0  0.000000000E+00  0.000000000E+00 -1.111363500E+03  1.111363500E+03  0.000000000E+00  0.00000E+00  9.000E+00
       6     2     1     2   502     0  7.545441547E+01 -2.138929187E+01  1.460111191E+02  2.388600375E+02  1.720000000E+02  0.00000E+00  9.000E+00
      -6     2     1     2     0   504 -5.763880021E+01  1.509448142E+01 -3.963968298E+02  4.361932156E+02  1.720000000E+02  0.00000E+00  9.000E+00
      24     2     3     3     0     0  2.057284897E+01  5.074892701E+01  9.197170590E+01  1.332251491E+02  7.931866091E+01  0.00000E+00  9.000E+00
     -24     2     4     4     0     0 -6.216502272E+01  7.213041997E+01 -2.674492340E+02  2.950421266E+02  8.033353059E+01  0.00000E+00  9.000E+00
     -11     1     5     5     0     0  2.799396194E+01 -1.198774374E-01  1.525736349E-01  2.799463439E+01  1.821586963E-07  0.00000E+00  9.000E+00
      12     1     5     5     0     0 -7.421112970E+00  5.086880445E+01  9.181913227E+01  1.052305147E+02  1.907348633E-06  0.00000E+00  9.000E+00
      13     1     6     6     0     0 -4.989777040E+00  2.760089275E+01 -1.766756658E+02  1.788882278E+02  2.697398305E-06  0.00000E+00  9.000E+00
     -14     1     6     6     0     0 -5.717524568E+01  4.452952722E+01 -9.077356819E+01  1.161538987E+02  1.348699152E-06  0.00000E+00  9.000E+00
       5     1     3     3   502     0  5.488156650E+01 -7.213821888E+01  5.403941322E+01  1.056348884E+02  4.750000000E+00  0.00000E+00  9.000E+00
      -5     1     4     4     0   504  4.526222518E+00 -5.703593855E+01 -1.289475958E+02  1.411510890E+02  4.750000000E+00  0.00000E+00  9.000E+00
       2     1     1     2   503     0 -1.781561526E+01  6.294810449E+00 -6.485064158E+02  6.487816213E+02  1.525878906E-05  0.00000E+00  9.000E+00
</event>
<event>
     13  10001  1.00000E+00  9.09551E+01 -1.00000E+00  1.28172E-01
      21    -1     0     0   502   503  0.000000000E+00  0.000000000E+00  3.740728377E+02  3.740728377E+02  0.000000000E+00  0.00000E+00  9.000E+00
      21    -1     0     0   503   511  0.000000000E+00  0.000000000E+00 -3.758432172E+02  3.758432172E+02  0.000000000E+00  0.00000E+00  9.000E+00
       6     2     1     2   502     0 -1.090617067E+02 -9.929047457E+01  2.096962598E+02  3.087224896E+02  1.720000000E+02  0.00000E+00  9.000E+00
      -6     2     1     2     0   504  1.661329641E+02  1.701120335E+02 -1.831697088E+02  3.459384452E+02  1.720000000E+02  0.00000E+00  9.000E+00
      24     2     3     3     0     0 -1.362220859E+02 -8.057952735E+01  2.098525023E+02  2.754002350E+02  8.220522980E+01  0.00000E+00  9.000E+00
     -24     2     4     4     0     0  9.355378199E+01  3.002653225E+01 -1.248729794E+02  1.776744964E+02  7.950511252E+01  0.00000E+00  9.000E+00
     -11     1     5     5     0     0 -2.567847429E+01 -1.134106464E+01 -2.831418695E-01  2.807283310E+01  1.321323236E-06  0.00000E+00  9.000E+00
      12     1     5     5     0     0 -1.105436116E+02 -6.923846270E+01  2.101356441E+02  2.473274019E+02  5.394796609E-06  0.00000E+00  9.000E+00
      13     1     6     6     0     0  3.326639398E+01  4.433320855E+01 -2.655209005E+01  6.145811447E+01  4.768371582E-07  0.00000E+00  9.000E+00
     -14     1     6     6     0     0  6.028738802E+01 -1.430667630E+01 -9.832088939E+01  1.162163819E+02  1.907348633E-06  0.00000E+00  9.000E+00
       5     1     3     3   502     0  2.716037917E+01 -1.871094722E+01 -1.562424477E-01  3.332225464E+01  4.750000000E+00  0.00000E+00  9.000E+00
      -5     1     4     4     0   504  7.257918206E+01  1.400855012E+02 -5.829672933E+01  1.682639488E+02  4.750000000E+00  0.00000E+00  9.000E+00
      21     1     1     2   504   511 -5.707125731E+01 -7.082155890E+01 -2.829693053E+01  9.525512004E+01  4.768371582E-07  0.00000E+00  9.000E+00
</event>
<event>
     13  10001  1.00000E+00  8.86051E+01 -1.00000E+00  1.28723E-01
      21    -1     0     0   502   513  0.000000000E+00  0.000000000E+00  2.919169785E+02  2.919169785E+02  0.000000000E+00  0.00000E+00  9.000E+00
      -1    -1     0     0     0   512  0.000000000E+00  0.000000000E+00 -2.779913603E+02  2.779913603E+02  0.000000000E+00  0.00000E+00  9.000E+00
       6     2     1     2   502     0 -2.186243365E+01  1.488340313E+02  1.241780164E+02  2.600648278E+02  1.720000000E+02  0.00000E+00  9.000E+00
      -6     2     1     2     0   512  2.255237380E+01 -6.023157348E+01 -1.219982698E+02  2.204632165E+02  1.720000000E+02  0.00000E+00  9.000E+00
      24     2     3     3     0     0 -5.155143077E+01  8.751163769E+01  1.379324612E+01  1.302602342E+02  8.038431579E+01  0.00000E+00  9.000E+00
     -24     2     4     4     0     0 -4.487878586E+01 -2.660800657E+01 -2.713473146E+01  9.922312848E+01  7.991773357E+01  0.00000E+00  9.000E+00
     -11     1     5     5     0     0 -3.352976800E+01  9.601369103E+00 -2.346801675E+01  4.203783345E+01  1.066240300E-06  0.00000E+00  9.000E+00
      12     1     5     5     0     0 -1.802166277E+01  7.791026859E+01  3.726126287E+01  8.822240073E+01  2.477718555E-06  0.00000E+00  9.000E+00
      13     1     6     6     0     0  1.714617788E+01 -2.680447246E+01 -7.744563807E-01  3.182877539E+01  4.168331841E-07  0.00000E+00  9.000E+00
     -14     1     6     6     0     0 -6.202496375E+01  1.964658887E-01 -2.636027508E+01  6.739435309E+01  2.158972058E-06  0.00000E+00  9.000E+00
       5     1     3     3   502     0  2.968899713E+01  6.132239365E+01  1.103847702E+02  1.298045936E+02  4.750000000E+00  0.00000E+00  9.000E+00
      -5     1     4     4     0   512  6.743115966E+01 -3.362356691E+01 -9.486353831E+01  1.212400880E+02  4.750000000E+00  0.00000E+00  9.000E+00
      -1     1     1     2     0   513 -6.899401542E-01 -8.860245786E+01  1.174587164E+01  8.938029457E+01  2.638810113E-06  0.00000E+00  9.000E+00
</event>
<event>
     13  10001  1.00000E+00  1.44830E+01 -1.00000E+00  1.83968E-01
      21    -1     0     0   503   504  0.000000000E+00  0.000000000E+00  1.720722790E+03  1.720722790E+03  0.000000000E+00  0.00000E+00  9.000E+00
      21    -1     0     0   502   511  0.000000000E+00  0.000000000E+00 -8.136267343E+01  8.136267343E+01  0.000000000E+00  0.00000E+00  9.000E+00
       6     2     1     2   502     0  1.529521879E+02 -8.634646112E+01  1.859605745E+02  3.082457111E+02  1.720000000E+02  0.00000E+00  9.000E+00
      -6     2     1     2     0   504 -1.600760730E+02  7.373669025E+01  1.457994152E+03  1.478645460E+03  1.720000000E+02  0.00000E+00  9.000E+00
      24     2     3     3     0     0  1.386888464E+02 -9.928740654E+01  9.060243213E+01  2.108462819E+02  8.458586569E+01  0.00000E+00  9.000E+00
     -24     2     4     4     0     0 -1.277969615E+02  4.963421170E+00  1.206620507E+03  1.215999357E+03  7.977899933E+01  0.00000E+00  9.000E+00
     -11     1     5     5     0     0  2.848711048E+01 -2.786098935E+01 -1.474662181E+01  4.248779879E+01  1.011524364E-06  0.00000E+00  9.000E+00
      12     1     5     5     0     0  1.102017360E+02 -7.142641719E+01  1.053490539E+02  1.683584832E+02  1.348699152E-06  0.00000E+00  9.000E+00
      13     1     6     6     0     0 -1.082773013E+01  2.345964418E+01  1.095460655E+02  1.125519218E+02  4.672030912E-06  0.00000E+00  9.000E+00
     -14     1     6     6     0     0 -1.169692314E+02 -1.849622301E+01  1.097074442E+03  1.103447435E+03  2.157918644E-05  0.00000E+00  9.000E+00
       5     1     3     3   502     0  1.426334142E+01  1.294094542E+01  9.535814238E+01  9.739942914E+01  4.750000000E+00  0.00000E+00  9.000E+00
      -5     1     4     4     0   504 -3.227911143E+01  6.877326908E+01  2.513736451E+02  2.626461032E+02  4.750000000E+00  0.00000E+00  9.000E+00
      21     1     1     2   503   511  7.123885106E+00  1.260977087E+01 -4.594610564E+00  1.519429191E+01  6.019774043E-07  0.00000E+00  9.000E+00
</event>
<event>
     13  10001  1.00000E+00  6.01324E+01 -1.00000E+00  1.37493E-01
      21    -1     0     0   502   503  0.000000000E+00  0.000000000E+00  1.079776546E+02  1.079776546E+02  0.000000000E+00  0.00000E+00  9.000E+00
      21    -1     0     0   512   504  0.000000000E+00  0.000000000E+00 -1.347961881E+03  1.347961881E+03  0.000000000E+00  0.00000E+00  9.000E+00
       6     2     1     2   502     0 -6.616021755E+01 -9.345172910E-01 -7.283586359E+01  1.981593065E+02  1.720000000E+02  0.00000E+00  9.000E+00
      -6     2     1     2     0   504  5.045495633E+01 -5.711073803E+01 -1.547448994E+02  2.435925346E+02  1.720000000E+02  0.00000E+00  9.000E+00
      24     2     3     3     0     0 -9.299891591E+01 -9.138683031E+00 -9.999787868E+01  1.588151629E+02  8.056280997E+01  0.00000E+00  9.000E+00
     -24     2     4     4     0     0 -4.027937703E+01 -5.169615287E+01 -8.516448250E+01  1.290236300E+02  7.140859600E+01  0.00000E+00  9.000E+00
     -11     1     5     5     0     0 -4.389322425E+01  2.934077392E+01 -7.474617032E+01  9.151221846E+01  2.336015456E-06  0.00000E+00  9.000E+00
      12     1     5     5     0     0 -4.910569166E+01 -3.847945695E+01 -2.525170836E+01  6.730294448E+01  8.920806376E-07  0.00000E+00  9.000E+00
      13     1     6     6     0     0 -3.135256476E+01 -6.788836243E+01 -5.209348226E+01  9.113475716E+01  1.507891493E-06  0.00000E+00  9.000E+00
     -14     1     6     6     0     0 -8.926812272E+00  1.619220956E+01 -3.307100024E+01  3.788887283E+01  1.168007728E-06  0.00000E+00  9.000E+00
       5     1     3     3   502     0  2.683869836E+01  8.204165740E+00  2.716201509E+01  3.934414351E+01  4.750000000E+00  0.00000E+00  9.000E+00
      -5     1     4     4     0   504  9.073433336E+01 -5.414585160E+00 -6.958041691E+01  1.145689046E+02  4.750000000E+00  0.00000E+00  9.000E+00
      21     1     1     2   512   503  1.570526122E+01  5.804525532E+01 -1.012403463E+03  1.014187694E+03  2.157918644E-05  0.00000E+00  9.000E+00
</event>
<event>
     13  10001  1.00000E+00  3.39285E+01 -1.00000E+00  1.52944E-01
      21    -1     0     0   511   512  0.000000000E+00  0.000000000E+00  7.209760128E+01  7.209760128E+01  0.000000000E+00  0.00000E+00  9.000E+00
       1    -1     0     0   502     0  0.000000000E+00  0.000000000E+00 -6.076111672E+02  6.076111672E+02  0.000000000E+00  0.00000E+00  9.000E+00
       6     2     1     2   502     0  2.536080078E+01 -3.679365779E+01 -1.312880604E+02  2.209468223E+02  1.720000000E+02  0.00000E+00  9.000E+00
      -6     2     1     2     0   512  2.318813782E-03  5.932936889E+01 -3.226999180E+02  3.704581097E+02  1.720000000E+02  0.00000E+00  9.000E+00
      24     2     3     3     0     0 -3.625269476E+01 -5.530464765E+01 -4.809662446E+01  1.156745225E+02  8.181960614E+01  0.00000E+00  9.000E+00
     -24     2     4     4     0     0 -2.494831632E+01  3.670543891E+01 -6.964756707E+01  1.151300243E+02  8.021490618E+01  0.00000E+00  9.000E+00
     -11     1     5     5     0     0  3.166707691E+00  1.744963154E+01  3.613250002E+00  1.809898489E+01  9.573923590E-07  0.00000E+00  9.000E+00
      12     1     5     5     0     0 -3.941940246E+01 -7.275427919E+01 -5.170987446E+01  9.757553764E+01  2.236564522E-06  0.00000E+00  9.000E+00
      13     1     6     6     0     0  2.779227643E+01  1.956303566E+00 -2.784523569E+01  3.939028946E+01  3.371747881E-07  0.00000E+00  9.000E+00
     -14     1     6     6     0     0 -5.274059275E+01  3.474913534E+01 -4.180233138E+01  7.573973488E+01  1.507891493E-06  0.00000E+00  9.000E+00
       5     1     3     3   502     0  6.161349554E+01  1.851098986E+01 -8.319143596E+01  1.052722998E+02  4.750000000E+00  0.00000E+00  9.000E+00
      -5     1     4     4     0   512  2.495063513E+01  2.262392998E+01 -2.530523509E+02  2.553280854E+02  4.750000000E+00  0.00000E+00  9.000E+00
       1     1     1     2   511     0 -2.536311959E+01 -2.253571110E+01 -8.152558756E+01  8.830383648E+01  9.536743164E-07  0.00000E+00  9.000E+00
</event>
<event>
     13  10001  1.00000E+00  1.66040E+02 -1.00000E+00  1.16709E-01
       2    -1     0     0   503     0  0.000000000E+00  0.000000000E+00  2.229938961E+02  2.229938961E+02  0.000000000E+00  0.00000E+00  9.000E+00
      21    -1     0     0   502   503  0.000000000E+00  0.000000000E+00 -5.918392052E+02  5.918392052E+02  0.000000000E+00  0.00000E+00  9.000E+00
       6     2     1     2   502     0  1.073032931E+01  1.039122782E+02 -1.452455968E+02  2.481797432E+02  1.720000000E+02  0.00000E+00  9.000E+00
      -6     2     1     2     0   504  3.643501051E+01  5.528817149E+01 -3.239033970E+02  3.726683545E+02  1.720000000E+02  0.00000E+00  9.000E+00
      24     2     3     3     0     0  7.126786914E+01  8.140010059E+01 -1.140375458E+02  1.762902668E+02  7.980357605E+01  0.00000E+00  9.000E+00
     -24     2     4     4     0     0 -1.377157406E+01  8.832964005E+00 -2.785730454E+02  2.904723041E+02  8.064453050E+01  0.00000E+00  9.000E+00
     -11     1     5     5     0     0  1.517690978E+01  1.020845442E+01 -7.570599262E+01  7.788419898E+01  1.348699152E-06  0.00000E+00  9.000E+00
      12     1     5     5     0     0  5.609095936E+01  7.119164617E+01 -3.833155321E+01  9.840606779E+01  1.651812370E-06  0.00000E+00  9.000E+00
      13     1     6     6     0     0 -2.619682680E+00  3.400249228E+01 -5.169817206E+01  6.193329648E+01  1.168007728E-06  0.00000E+00  9.000E+00
     -14     1     6     6     0     0 -1.115189138E+01 -2.516952827E+01 -2.268748734E+02  2.285390076E+02  5.394796609E-06  0.00000E+00  9.000E+00
       5     1     3     3   502     0 -6.053753984E+01  2.251217760E+01 -3.120805096E+01  7.188947638E+01  4.750000000E+00  0.00000E+00  9.000E+00
      -5     1     4     4     0   504  5.020658458E+01  4.645520748E+01 -4.533035155E+01  8.219605045E+01  4.750000000E+00  0.00000E+00  9.000E+00
       2     1     1     2   504     0 -4.716533982E+01 -1.592004497E+02  1.003036847E+02  1.939850036E+02  1.907348633E-06  0.00000E+00  9.000E+00
</event>
<event>
     13  10001  1.00000E+00  5.98264E+01 -1.00000E+00  1.37616E-01
      21    -1     0     0   503   511  0.000000000E+00  0.000000000E+00  1.497206612E+02  1.497206612E+02  0.000000000E+00  0.00000E+00  9.000E+00
      21    -1     0     0   502   503  0.000000000E+00  0.000000000E+00 -6.427631654E+02  6.427631654E+02  0.000000000E+00  0.00000E+00  9.000E+00
       6     2     1     2   502     0 -1.919325637E+01 -1.551658827E+02 -4.531865465E+02  5.093200155E+02  1.720000000E+02  0.00000E+00  9.000E+00
      -6     2     1     2     0   504  3.839739821E+01  9.850550230E+01 -7.309992646E+01  2.147214321E+02  1.720000000E+02  0.00000E+00  9.000E+00
      24     2     3     3     0     0 -5.485762637E+00 -4.434408973E+01 -8.843983918E+01  1.278333340E+02  8.076672725E+01  0.00000E+00  9.000E+00
     -24     2     4     4     0     0  3.308884156E+01  1.045718799E+01  1.655813103E+01  8.885715525E+01  8.010741613E+01  0.00000E+00  9.000E+00
     -11     1     5     5     0     0  3.462842339E+00 -2.447562267E+00 -8.472499539E+01  8.483104786E+01  9.536743164E-07  0.00000E+00  9.000E+00
      12     1     5     5     0     0 -8.948604976E+00 -4.189652746E+01 -3.714843787E+00  4.300228609E+01  1.055355740E-06  0.00000E+00  9.000E+00
      13     1     6     6     0     0 -2.723080280E+00  3.175275839E+01  3.129181932E+01  4.466352861E+01  1.907348633E-06  0.00000E+00  9.000E+00
     -14     1     6     6     0     0  3.581192184E+01 -2.129557039E+01 -1.473368830E+01  4.419362664E+01  9.386548846E-07  0.00000E+00  9.000E+00
       5     1     3     3   502     0 -1.370749373E+01 -1.108217930E+02 -3.647467073E+02  3.814866816E+02  4.750000000E+00  0.00000E+00  9.000E+00
      -5     1     4     4     0   504  5.308556646E+00  8.804831431E+01 -8.965805748E+01  1.258642769E+02  4.750000000E+00  0.00000E+00  9.000E+00
      21     1     1     2   504   511 -1.920414184E+01  5.666038039E+01  3.324396875E+01  6.844237889E+01  9.536743164E-07  0.00000E+00  9.000E+00
</event>
<event>
     13  10001  1.00000E+00  1.52800E+01 -1.00000E+00  1.81635E-01
      21    -1     0     0   512   503  0.000000000E+00  0.000000000E+00  7.441704577E+01  7.441704577E+01  0.000000000E+00  0.00000E+00  9.000E+00
      21    -1     0     0   503   504  0.000000000E+00  0.000000000E+00 -9.737053009E+02  9.737053009E+02  0.000000000E+00  0.00000E+00  9.000E+00
       6     2     1     2   502     0  7.134861279E+01  2.163478330E+01 -2.270153450E+02  2.944123898E+02  1.720000000E+02  0.00000E+00  9.000E+00
      -6     2     1     2     0   504 -6.963542724E+01 -6.451136057E+00 -6.988274807E+02  7.230729961E+02  1.720000000E+02  0.00000E+00  9.000E+00
      24     2     3     3     0     0  5.855036234E+01  6.986795353E+01 -9.891999445E+01  1.568579814E+02  8.068200034E+01  0.00000E+00  9.000E+00
     -24     2     4     4     0     0  6.803895532E+00 -4.081318376E+01 -4.856327365E+02  4.939479607E+02  8.020862890E+01  0.00000E+00  9.000E+00
     -11     1     5     5     0     0  3.068410009E+01 -1.330376481E+01 -3.432632880E+01  4.792495181E+01  0.000000000E+00  0.00000E+00  9.000E+00
      12     1     5     5     0     0  2.786626225E+01  8.317171834E+01 -6.459366564E+01  1.089330296E+02  3.568322551E-06  0.00000E+00  9.000E+00
      13     1     6     6     0     0  1.634922651E+01  1.572488031E+01 -2.656046899E+02  2.665716046E+02  7.629394531E-06  0.00000E+00  9.000E+00
     -14     1     6     6     0     0 -9.545330978E+00 -5.653806407E+01 -2.200280466E+02  2.273763561E+02  6.031565972E-06  0.00000E+00  9.000E+00
       5     1     3     3   502     0  1.279825044E+01 -4.823317023E+01 -1.280953505E+02  1.375544083E+02  4.750000000E+00  0.00000E+00  9.000E+00
      -5     1     4     4     0   504 -7.643932277E+01  3.436204771E+01 -2.131947442E+02  2.291250354E+02  4.750000000E+00  0.00000E+00  9.000E+00
      21     1     1     2   512   502 -1.713185550E+00 -1.518364725E+01  2.655457057E+01  3.063696079E+01  8.920806376E-07  0.00000E+00  9.000E+00
</event>
<event>
     13  10001  1.00000E+00  3.44164E+01 -1.00000E+00  1.52516E-01
      -4    -1     0     0     0   512  0.000000000E+00  0.000000000E+00  2.774685431E+02  2.774685431E+02  0.000000000E+00  0.00000E+00  9.000E+00
       4    -1     0     0   511     0  0.000000000E+00  0.000000000E+00 -1.669348083E+02  1.669348083E+02  0.000000000E+00  0.00000E+00  9.000E+00
       6     2     1     2   502     0  2.759010899E+01 -8.681569054E+01  2.539401579E+01  1.962830463E+02  1.720000000E+02  0.00000E+00  9.000E+00
      -6     2     1     2     0   512 -5.167861985E+00  6.070569039E+01  1.028006438E+02  2.094370072E+02  1.720000000E+02  0.00000E+00  9.000E+00
      24     2     3     3     0     0  6.838979739E+01 -8.507406731E+00  2.508251864E+01  1.078553277E+02  7.908285921E+01  0.00000E+00  9.000E+00
     -24     2     4     4     0     0  3.072732028E+01  5.527416067E+01  1.291169107E+02  1.643473850E+02  7.962088470E+01  0.00000E+00  9.000E+00
     -11     1     5     5     0     0  8.338869096E+00  2.460843853E+00 -2.652864521E+01  2.791704688E+01  8.920806376E-07  0.00000E+00  9.000E+00
      12     1     5     5     0     0  6.005092830E+01 -1.096825058E+01  5.161116385E+01  7.993828084E+01  6.743495762E-07  0.00000E+00  9.000E+00
      13     1     6     6     0     0  2.404582121E+01  3.096306762E+01  1.331615383E+02  1.388124935E+02  0.000000000E+00  0.00000E+00  9.000E+00
     -14     1     6     6     0     0  6.681499068E+00  2.431109305E+01 -4.044627523E+00  2.553489156E+01  1.292197906E-06  0.00000E+00  9.000E+00
       5     1     3     3   502     0 -4.079968840E+01 -7.830828381E+01  3.114971434E-01  8.842771860E+01  4.750000000E+00  0.00000E+00  9.000E+00
      -5     1     4     4     0   512 -3.589518226E+01  5.431529726E+00 -2.631626696E+01  4.508962222E+01  4.750000000E+00  0.00000E+00  9.000E+00
      21     1     1     2   511   502 -2.242224701E+01  2.611000015E+01 -1.766092473E+01  3.868329783E+01  7.907449699E-07  0.00000E+00  9.000E+00
</event>
<event>
     13  10001  1.00000E+00  8.16983E+00 -1.00000E+00  2.13449E-01
       2    -1     0     0   513     0  0.000000000E+00  0.000000000E+00  1.478460882E+03  1.478460882E+03  0.000000000E+00  0.00000E+00  9.000E+00
      -2    -1     0     0     0   512  0.000000000E+00  0.000000000E+00 -3.568193935E+01  3.568193935E+01  0.000000000E+00  0.00000E+00  9.000E+00
       6     2     1     2   502     0 -1.578912723E+01  5.904745532E+01  6.114524212E+02  6.381175142E+02  1.720000000E+02  0.00000E+00  9.000E+00
      -6     2     1     2     0   512  9.148846015E+00 -6.380694413E+01  3.556832843E+02  4.003119112E+02  1.720000000E+02  0.00000E+00  9.000E+00
      24     2     3     3     0     0  5.511269798E+01  5.378808858E+01  3.761073250E+02  3.922219946E+02  8.031690459E+01  0.00000E+00  9.000E+00
     -24     2     4     4     0     0  5.392021277E+01 -1.498352734E+01  1.176298834E+02  1.531678530E+02  8.057112568E+01  0.00000E+00  9.000E+00
     -11     1     5     5     0     0  2.882265225E+01 -1.569447672E+01  7.127531827E+01  7.846803730E+01  1.651812370E-06  0.00000E+00  9.000E+00
      12     1     5     5     0     0  2.629004573E+01  6.948256530E+01  3.048320068E+02  3.137539573E+02  6.607249480E-06  0.00000E+00  9.000E+00
      13     1     6     6     0     0  3.967046699E+01 -4.769036320E+01  8.113001876E+01  1.021283342E+02  2.523185073E-06  0.00000E+00  9.000E+00
     -14     1     6     6     0     0  1.424974578E+01  3.270683587E+01  3.649986468E+01  5.103951889E+01  1.966049969E-06  0.00000E+00  9.000E+00
       5     1     3     3   502     0 -7.090182521E+01  5.259366738E+00  2.353450962E+02  2.458955196E+02  4.750000000E+00  0.00000E+00  9.000E+00
      -5     1     4     4     0   512 -4.477136675E+01 -4.882341679E+01  2.380534009E+02  2.471440581E+02  4.750000000E+00  0.00000E+00  9.000E+00
      21     1     1     2   513   502  6.640281213E+00  4.759488809E+00  4.756432367E+02  4.757133955E+02  9.344061824E-06  0.00000E+00  9.000E+00
</event>
<event>
     13  10001  1.00000E+00  8.30755E+00 -1.00000E+00  2.12449E-01
      21    -1     0     0   511   512  0.000000000E+00  0.000000000E+00  2.057547847E+02  2.057547847E+02  0.000000000E+00  0.00000E+00  9.000E+00
       1    -1     0     0   502     0  0.000000000E+00  0.000000000E+00 -2.958882268E+02  2.958882268E+02  0.000000000E+00  0.00000E+00  9.000E+00
       6     2     1     2   502     0 -3.572204263E+01 -8.684353382E+01  7.083332934E+01  2.083728011E+02  1.720000000E+02  0.00000E+00  9.000E+00
      -6     2     1     2     0   512  4.401739513E+01  8.729353091E+01 -1.831374561E+02  2.695941755E+02  1.720000000E+02  0.00000E+00  9.000E+00
      24     2     3     3     0     0 -8.440078725E+01 -7.898737496E+01  3.023917819E+01  1.443276060E+02  8.095400954E+01  0.00000E+00  9.000E+00
     -24     2     4     4     0     0 -1.993532436E+00  1.601525930E+00 -1.453984491E+02  1.651579733E+02  7.829372953E+01  0.00000E+00  9.000E+00
     -11     1     5     5     0     0 -4.905086292E+01 -2.149257059E+01 -2.308008980E+01  5.831473475E+01  8.259061849E-07  0.00000E+00  9.000E+00
      12     1     5     5     0     0 -3.534992433E+01 -5.749480438E+01  5.331926799E+01  8.601287124E+01  1.907348633E-06  0.00000E+00  9.000E+00
      13     1     6     6     0     0  3.207619393E+01  2.039609334E+01 -5.626265399E+01  6.789969863E+01  1.168007728E-06  0.00000E+00  9.000E+00
     -14     1     6     6     0     0 -3.406972636E+01 -1.879456741E+01 -8.913579514E+01  9.725827468E+01  1.348699152E-06  0.00000E+00  9.000E+00
       5     1     3     3   502     0  4.867874462E+01 -7.856158860E+00  4.059415115E+01  6.404519512E+01  4.750000000E+00  0.00000E+00  9.000E+00
      -5     1     4     4     0   512  4.601092757E+01  8.569200498E+01 -3.773900701E+01  1.044362022E+02  4.750000000E+00  0.00000E+00  9.000E+00
       1     1     1     2   511     0 -8.295352503E+00 -4.499970860E-01  2.217068470E+01  2.367603494E+01  4.129530925E-07  0.00000E+00  9.000E+00
</event>
<event>
     13  10001  1.00000E+00  5.11405E+01 -1.00000E+00  1.41531E-01
      21    -1     0     0   502   512  0.000000000E+00  0.000000000E+00  4.705769709E+02  4.705769709E+02  0.000000000E+00  0.00000E+00  9.000E+00
      21    -1     0     0   503   504  0.000000000E+00  0.000000000E+00 -3.643911896E+02  3.643911896E+02  0.000000000E+00  0.00000E+00  9.000E+00
       6     2     1     2   502     0  1.162543588E+02  6.715993686E+01  1.803203504E+02  2.830635297E+02  1.720000000E+02  0.00000E+00  9.000E+00
      -6     2     1     2     0   504 -6.520164025E+01 -7.015419386E+01 -2.786017343E+02  3.411389617E+02  1.720000000E+02  0.00000E+00  9.000E+00
      24     2     3     3     0     0  3.308102122E+01  6.549595248E+01  1.654851168E+02  1.984277241E+02  8.126600799E+01  0.00000E+00  9.000E+00
     -24     2     4     4     0     0  1.291431297E+01 -4.907723723E+01 -2.235159927E+02  2.431423205E+02  8.113836538E+01  0.00000E+00  9.000E+00
     -11     1     5     5     0     0 -2.418840161E+01  2.172129448E+01  2.681681208E+01  4.214302809E+01  1.168007728E-06  0.00000E+00  9.000E+00
      12     1     5     5     0     0  5.726942284E+01  4.377465800E+01  1.386683047E+02  1.562846960E+02  1.907348633E-06  0.00000E+00  9.000E+00
      13     1     6     6     0     0  1.614486939E+01  5.901406651E+00 -1.515470935E+02  1.525188675E+02  0.000000000E+00  0.00000E+00  9.000E+00
     -14     1     6     6     0     0 -3.230556416E+00 -5.497864388E+01 -7.196889927E+01  9.062345303E+01  2.336015456E-06  0.00000E+00  9.000E+00
       5     1     3     3   502     0  8.317333758E+01  1.663984375E+00  1.483523361E+01  8.463580557E+01  4.750000000E+00  0.00000E+00  9.000E+00
      -5     1     4     4     0   504 -7.811595322E+01 -2.107695663E+01 -5.508574161E+01  9.799664115E+01  4.750000000E+00  0.00000E+00  9.000E+00
      21     1     1     2   503   512 -5.105271856E+01  2.994257006E+00  2.044671652E+02  2.107656692E+02  0.000000000E+00  0.00000E+00  9.000E+00
</event>
<event>
     13  10001  1.00000E+00  8.73502E+01 -1.00000E+00  1.29026E-01
      21    -1     0     0   503   504  0.000000000E+00  0.000000000E+00  9.955838130E+01  9.955838130E+01  0.000000000E+00  0.00000E+00  9.000E+00
       2    -1     0     0   502     0  0.000000000E+00  0.000000000E+00 -1.676762888E+03  1.676762888E+03  0.000000000E+00  0.00000E+00  9.000E+00
       6     2     1     2   502     0 -9.563733896E+01  5.057962000E+01 -3.505503948E+01  2.061980949E+02  1.720000000E+02  0.00000E+00  9.000E+00
      -6     2     1     2     0   504  5.845893355E+01  2.846355837E+01 -7.108650692E+02  7.342620565E+02  1.720000000E+02  0.00000E+00  9.000E+00
      24     2     3     3     0     0 -6.225216355E+01  8.794952188E+01 -6.369349795E+01  1.482860642E+02  7.950751463E+01  0.00000E+00  9.000E+00
     -24     2     4     4     0     0  2.358589642E+01  5.385039924E+01 -6.607939182E+02  6.680026944E+02  7.824856147E+01  0.00000E+00  9.000E+00
     -11     1     5     5     0     0 -4.235444567E+01  5.565578124E+01  4.680253122E+00  7.009543368E+01  1.028935701E-06  0.00000E+00  9.000E+00
      12     1     5     5     0     0 -1.989771788E+01  3.229374064E+01 -6.837375108E+01  7.819063050E+01  1.907348633E-06  0.00000E+00  9.000E+00
      13     1     6     6     0     0  4.479535178E+01  8.103985747E+00 -2.483260349E+02  2.524640920E+02  4.672030912E-06  0.00000E+00  9.000E+00
     -14     1     6     6     0     0 -2.120945536E+01  4.574641350E+01 -4.124678833E+02  4.155386024E+02  7.629394531E-06  0.00000E+00  9.000E+00
       5     1     3     3   502     0 -3.338517541E+01 -3.736990187E+01  2.863845848E+01  5.791203076E+01  4.750000000E+00  0.00000E+00  9.000E+00
      -5     1     4     4     0   504  3.487303713E+01 -2.538684087E+01 -5.007115093E+01  6.625936208E+01  4.750000000E+00  0.00000E+00  9.000E+00
       2     1     1     2   503     0  3.717840541E+01 -7.904317837E+01 -8.312843984E+02  8.358611182E+02  1.078959322E-05  0.00000E+00  9.000E+00
</event>
<event>
     13  10001  1.00000E+00  2.05029E+01 -1.00000E+00  1.69849E-01
      21    -1     0     0   511   504  0.000000000E+00  0.000000000E+00  1.495249164E+03  1.495249164E+03  0.000000000E+00  0.00000E+00  9.000E+00
      21    -1     0     0   502   503  0.000000000E+00  0.000000000E+00 -5.555937486E+01  5.555937486E+01  0.000000000E+00  0.00000E+00  9.000E+00
       6     2     1     2   502     0 -1.146226939E+02  1.916977949E+01  7.246022815E+02  7.537495000E+02  1.720000000E+02  0.00000E+00  9.000E+00
      -6     2     1     2     0   504  1.338312822E+02 -1.200044934E+01  2.514374396E+02  3.329558663E+02  1.720000000E+02  0.00000E+00  9.000E+00
      24     2     3     3     0     0 -2.216631997E+01  6.041504006E+01  4.455144931E+02  4.568287888E+02  7.789772730E+01  0.00000E+00  9.000E+00
     -24     2     4     4     0     0  5.171549204E+01 -1.182346849E+01  1.382917324E+02  1.930718148E+02  1.238460168E+02  0.00000E+00  9.000E+00
     -11     1     5     5     0     0 -4.094398941E+01  3.109071992E+01  1.365337099E+02  1.458920734E+02  0.000000000E+00  0.00000E+00  9.000E+00
      12     1     5     5     0     0  1.877766944E+01  2.932432014E+01  3.089807832E+02  3.109367155E+02  5.394796609E-06  0.00000E+00  9.000E+00
      13     1     6     6     0     0 -2.942888213E+00 -6.022774713E+01  4.877553018E+01  7.755704005E+01  1.907348633E-06  0.00000E+00  9.000E+00
     -14     1     6     6     0     0  5.465838025E+01  4.840427865E+01  8.951620224E+01  1.155147748E+02  1.348699152E-06  0.00000E+00  9.000E+00
       5     1     3     3   502     0 -9.245637393E+01 -4.124526057E+01  2.790877884E+02  2.969207112E+02  4.750000000E+00  0.00000E+00  9.000E+00
      -5     1     4     4     0   504  8.211579016E+01 -1.769808490E-01  1.131457072E+02  1.398840515E+02  4.750000000E+00  0.00000E+00  9.000E+00
      21     1     1     2   511   503 -1.920858829E+01 -7.169330152E+00  4.636500682E+02  4.641031727E+02  0.000000000E+00  0.00000E+00  9.000E+00
</event>
<event>
     13  10001  1.00000E+00  1.06612E+02 -1.00000E+00  1.24929E-01
      21    -1     0     0   512   503  0.000000000E+00  0.000000000E+00  1.177371302E+02  1.177371302E+02  0.000000000E+00  0.00000E+00  9.000E+00
      21    -1     0     0   503   504  0.000000000E+00  0.000000000E+00 -6.750071912E+02  6.750071912E+02  0.000000000E+00  0.00000E+00  9.000E+00
       6     2     1     2   502     0  3.935892345E+01  1.597528712E+01 -2.488083764E+02  3.054405717E+02  1.720000000E+02  0.00000E+00  9.000E+00
      -6     2     1     2     0   504  3.095042506E+01  6.416606877E+01 -3.296684828E+02  3.786033831E+02  1.720000000E+02  0.00000E+00  9.000E+00
      24     2     3     3     0     0 -1.403014271E+01  6.266959609E+01 -1.113779835E+02  1.507136307E+02  7.864617019E+01  0.00000E+00  9.000E+00
     -24     2     4     4     0     0  7.576988796E+01  4.245848185E+01 -2.949689446E+02  3.177213329E+02  7.997730016E+01  0.00000E+00  9.000E+00
     -11     1     5     5     0     0 -1.561246814E+01 -1.189361932E+01 -5.136248526E+01  5.498465453E+01  1.784161275E-06  0.00000E+00  9.000E+00
      12     1     5     5     0     0  1.582325431E+00  7.456321541E+01 -6.001549828E+01  9.572897618E+01  2.336015456E-06  0.00000E+00  9.000E+00
      13     1     6     6     0     0  1.741194792E+01 -2.298758502E+01 -9.714246027E+01  1.013324360E+02  1.907348633E-06  0.00000E+00  9.000E+00
     -14     1     6     6     0     0  5.835794003E+01  6.544606687E+01 -1.978264843E+02  2.163888970E+02  0.000000000E+00  0.00000E+00  9.000E+00
       5     1     3     3   502     0  5.338906616E+01 -4.669430897E+01 -1.374303929E+02  1.547269410E+02  4.750000000E+00  0.00000E+00  9.000E+00
      -5     1     4     4     0   504 -4.481946290E+01  2.170758692E+01 -3.469953817E+01  6.088205017E+01  4.750000000E+00  0.00000E+00  9.000E+00
      21     1     1     2   512   502 -7.030934851E+01 -8.014135589E+01  2.120679812E+01  1.087003666E+02  6.307962682E-07  0.00000E+00  9.000E+00
</event>
<event>
     13  10001  1.00000E+00  1.52939E+02 -1.00000E+00  1.18150E-01
       2    -1     0     0   502     0  0.000000000E+00  0.000000000E+00  6.863452736E+02  6.863452736E+02  0.000000000E+00  0.00000E+00  9.000E+00
      21    -1     0     0   503   504  0.000000000E+00  0.000000000E+00 -2.875075936E+02  2.875075936E+02  0.000000000E+00  0.00000E+00  9.000E+00
       6     2     1     2   502     0  1.191380259E+02 -9.940089434E+01 -1.601439146E+02  2.816105119E+02  1.720000000E+02  0.00000E+00  9.000E+00
      -6     2     1     2     0   504  1.734208147E+01  1.684183559E+02  2.500480709E+02  3.475248598E+02  1.720000000E+02  0.00000E+00  9.000E+00
      24     2     3     3     0     0  4.782229185E+00 -1.461423919E+01 -9.356213080E+01  1.243790851E+02  8.049744582E+01  0.00000E+00  9.000E+00
     -24     2     4     4     0     0  4.172034416E+01  1.819306797E+02  2.459257152E+02  3.189514648E+02  8.007009530E+01  0.00000E+00  9.000E+00
     -11     1     5     5     0     0 -1.986235072E+00 -4.244085516E+00 -1.064225852E+02  1.065256966E+02  1.348699152E-06  0.00000E+00  9.000E+00
      12     1     5     5     0     0  6.768464257E+00 -1.037015368E+01  1.286045437E+01  1.785338854E+01  7.907449699E-07  0.00000E+00  9.000E+00
      13     1     6     6     0     0 -2.071018001E+00  1.193251416E+02  1.895943121E+02  2.240285288E+02  3.814697266E-06  0.00000E+00  9.000E+00
     -14     1     6     6     0     0  4.379136216E+01  6.260553813E+01  5.633140306E+01  9.492293598E+01  1.651812370E-06  0.00000E+00  9.000E+00
       5     1     3     3   502     0  1.143557967E+02 -8.478665515E+01 -6.658178378E+01  1.572314268E+02  4.750000000E+00  0.00000E+00  9.000E+00
      -5     1     4     4     0   504 -2.437826269E+01 -1.351232381E+01  4.122355786E+00  2.857339503E+01  4.750000000E+00  0.00000E+00  9.000E+00
       2     1     1     2   503     0 -1.364801074E+02 -6.901746155E+01  3.089335237E+02  3.447174956E+02  3.814697266E-06  0.00000E+00  9.000E+00
</event>
<event>
     13  10001  1.00000E+00  1.62984E+01 -1.00000E+00  1.78906E-01
      21    -1     0     0   503   504  0.000000000E+00  0.000000000E+00  6.799844860E+01  6.799844860E+01  0.000000000E+00  0.00000E+00  9.000E+00
      21    -1     0     0   511   503  0.000000000E+00  0.000000000E+00 -6.542604674E+02  6.542604674E+02  0.000000000E+00  0.00000E+00  9.000E+00
       6     2     1     2   502     0  8.769530393E+00  6.402593384E+01 -1.397192657E+02  2.308282870E+02  1.720000000E+02  0.00000E+00  9.000E+00
      -6     2     1     2     0   504  1.834640240E+00 -7.640296303E+01 -4.206168914E+02  4.608072786E+02  1.720000000E+02  0.00000E+00  9.000E+00
      24     2     3     3     0     0  4.960740058E+00 -3.311726894E+01 -7.170894778E+01  1.120879208E+02  7.937358719E+01  0.00000E+00  9.000E+00
     -24     2     4     4     0     0 -3.942019323E+01 -1.036199623E+02 -2.701070042E+02  3.023190614E+02  7.840901079E+01  0.00000E+00  9.000E+00
     -11     1     5     5     0     0  3.478388441E+01  4.422700643E+00 -4.551346703E+01  5.745393439E+01  9.536743164E-07  0.00000E+00  9.000E+00
      12     1     5     5     0     0 -2.982314435E+01 -3.753996958E+01 -2.619548074E+01  5.463398637E+01  4.768371582E-07  0.00000E+00  9.000E+00
      13     1     6     6     0     0 -1.510258732E+01 -8.553198566E+01 -1.141066826E+02  1.434020353E+02  1.907348633E-06  0.00000E+00  9.000E+00
     -14     1     6     6     0     0 -2.431760591E+01 -1.808797659E+01 -1.560003216E+02  1.589170261E+02  1.907348633E-06  0.00000E+00  9.000E+00
       5     1     3     3   502     0  3.808790335E+00  9.714320278E+01 -6.801031795E+01  1.187403663E+02  4.750000000E+00  0.00000E+00  9.000E+00
      -5     1     4     4     0   504  4.125483347E+01  2.721699922E+01 -1.505098872E+02  1.584882172E+02  4.750000000E+00  0.00000E+00  9.000E+00
      21     1     1     2   511   502 -1.060417063E+01  1.237702919E+01 -2.592586168E+01  3.062335041E+01  3.371747881E-07  0.00000E+00  9.000E+00
</event>
<event>
     13  10001  1.00000E+00  6.73243E+01 -1.00000E+00  1.34813E-01
      21    -1     0     0   502   512  0.000000000E+00  0.000000000E+00  7.688036146E+01  7.688036146E+01  0.000000000E+00  0.00000E+00  9.000E+00
      21    -1     0     0   503   504  0.000000000E+00  0.000000000E+00 -8.463964626E+02  8.463964626E+02  0.000000000E+00  0.00000E+00  9.000E+00
       6     2     1     2   502     0  5.281396607E+01  1.124258335E+01 -4.846063236E+02  5.170522213E+02  1.720000000E+02  0.00000E+00  9.000E+00
      -6     2     1     2     0   504 -1.115950624E+02 -4.406552526E+01 -2.609255454E+02  3.347556851E+02  1.720000000E+02  0.00000E+00  9.000E+00
      24     2     3     3     0     0  6.629388524E+01 -3.242049966E+01 -2.278736441E+02  2.562411704E+02  9.103390428E+01  0.00000E+00  9.000E+00
     -24     2     4     4     0     0 -3.011921390E+01  3.774538400E+01 -1.073997890E+02  1.425993448E+02  8.042373645E+01  0.00000E+00  9.000E+00
     -11     1     5     5     0     0  6.830499824E+01 -1.254077542E+01 -7.557486763E+01  1.026372469E+02  9.536743164E-07  0.00000E+00  9.000E+00
      12     1     5     5     0     0 -2.011113004E+00 -1.987972423E+01 -1.522987764E+02  1.536039235E+02  3.303624740E-06  0.00000E+00  9.000E+00
      13     1     6     6     0     0 -5.539452621E+01  3.127503834E+01 -9.335671067E+01  1.129697171E+02  1.907348633E-06  0.00000E+00  9.000E+00
     -14     1     6     6     0     0  2.527531230E+01  6.470345667E+00 -1.404307834E+01  2.962962764E+01  8.259061849E-07  0.00000E+00  9.000E+00
       5     1     3     3   502     0 -1.347991917E+01  4.366308301E+01 -2.567326796E+02  2.608110509E+02  4.750000000E+00  0.00000E+00  9.000E+00
      -5     1     4     4     0   504 -8.147584848E+01 -8.181090926E+01 -1.535257564E+02  1.921563403E+02  4.750000000E+00  0.00000E+00  9.000E+00
      21     1     1     2   503   512  5.878109631E+01  3.282294191E+01 -2.398423214E+01  7.146891765E+01  1.617033478E-06  0.00000E+00  9.000E+00
</event>
<event>
     13  10001  1.00000E+00  6.82606E+01 -1.00000E+00  1.34493E-01
      21    -1     0     0   503   504  0.000000000E+00  0.000000000E+00  7.864840548E+02  7.864840548E+02  0.000000000E+00  0.00000E+00  9.000E+00
      21    -1     0     0   502   511  0.000000000E+00  0.000000000E+00 -9.540193936E+01  9.540193936E+01  0.000000000E+00  0.00000E+00  9.000E+00
       6     2     1     2   502     0  1.023038407E+02 -6.638258528E+01  4.223613693E+02  4.720655143E+02  1.720000000E+02  0.00000E+00  9.000E+00
      -6     2     1     2     0   504 -3.840516996E+01  9.039225455E+01  2.775676250E+02  3.409890075E+02  1.720000000E+02  0.00000E+00  9.000E+00
      24     2     3     3     0     0 -1.220860101E+00 -3.494140921E+01  2.749779159E+02  2.891711292E+02  8.236926113E+01  0.00000E+00  9.000E+00
     -24     2     4     4     0     0 -5.251069538E-01  9.905442393E+01  1.105706888E+02  1.694650396E+02  8.173412865E+01  0.00000E+00  9.000E+00
     -11     1     5     5     0     0  4.665463060E+00 -1.931499673E+01  7.603116367E+00  2.127540888E+01  1.134055709E-06  0.00000E+00  9.000E+00
      12     1     5     5     0     0 -5.886323162E+00 -1.562641248E+01  2.673747995E+02  2.678957203E+02  5.394796609E-06  0.00000E+00  9.000E+00
      13     1     6     6     0     0  1.804449288E+01  8.269829490E+01  1.165151922E+02  1.440152829E+02  2.697398305E-06  0.00000E+00  9.000E+00
     -14     1     6     6     0     0 -1.856959983E+01  1.635612903E+01 -5.944503389E+00  2.544975668E+01  4.298152060E-07  0.00000E+00  9.000E+00
       5     1     3     3   502     0  1.035247008E+02 -3.144117607E+01  1.473834535E+02  1.828943851E+02  4.750000000E+00  0.00000E+00  9.000E+00
      -5     1     4     4     0   504 -3.788006301E+01 -8.662169377E+00  1.669969362E+02  1.715239679E+02  4.750000000E+00  0.00000E+00  9.000E+00
      21     1     1     2   503   511 -6.389867073E+01 -2.400966927E+01 -8.846878848E+00  6.883147249E+01  2.194875793E-06  0.00000E+00  9.000E+00
</event>
<event>
     13  10001  1.00000E+00  1.03845E+01 -1.00000E+00  1.99975E-01
      21    -1     0     0   502   503  0.000000000E+00  0.000000000E+00  2.188013377E+02  2.188013377E+02  0.000000000E+00  0.00000E+00  9.000E+00
      21    -1     0     0   512   504  0.000000000E+00  0.000000000E+00 -1.601840836E+02  1.601840836E+02  0.000000000E+00  0.00000E+00  9.000E+00
       6     2     1     2   502     0  2.100745295E+01  4.499263158E+01 -6.562145249E-01  1.790253630E+02  1.720000000E+02  0.00000E+00  9.000E+00
      -6     2     1     2     0   504 -3.072345566E+01 -4.132691563E+01  6.059227795E+01  1.894921340E+02  1.720000000E+02  0.00000E+00  9.000E+00
      24     2     3     3     0     0  6.073638729E+00  4.274596326E+01 -6.562085822E+01  1.121595739E+02  8.005976838E+01  0.00000E+00  9.000E+00
     -24     2     4     4     0     0 -8.066014500E+00  3.900578861E+01  5.397821755E+01  1.056290831E+02  8.159254307E+01  0.00000E+00  9.000E+00
     -11     1     5     5     0     0  4.001438002E+01  1.066884352E+01 -1.706489152E+01  4.479046052E+01  1.261592536E-06  0.00000E+00  9.000E+00
      12     1     5     5     0     0 -3.394074129E+01  3.207711975E+01 -4.855596670E+01  6.736911335E+01  1.348699152E-06  0.00000E+00  9.000E+00
      13     1     6     6     0     0  1.766066816E+01  9.945783353E+00  6.266139675E+01  6.585794143E+01  9.536743164E-07  0.00000E+00  9.000E+00
     -14     1     6     6     0     0 -2.572668266E+01  2.906000525E+01 -8.683179194E+00  3.977114164E+01  1.066240300E-06  0.00000E+00  9.000E+00
       5     1     3     3   502     0  1.493381422E+01  2.246668321E+00  6.496464369E+01  6.686578913E+01  4.750000000E+00  0.00000E+00  9.000E+00
      -5     1     4     4     0   504 -2.265744116E+01 -8.033270423E+01  6.614060399E+00  8.386305089E+01  4.750000000E+00  0.00000E+00  9.000E+00
      21     1     1     2   512   503  9.716002717E+00 -3.665715955E+00 -1.318809304E+00  1.046792435E+01  2.313282296E-07  0.00000E+00  9.000E+00
</event>
<event>
     13  10001  1.00000E+00  2.78706E+01 -1.00000E+00  1.59116E-01
      21    -1     0     0   511   503  0.000000000E+00  0.000000000E+00  8.043309106E+01  8.043309106E+01  0.000000000E+00  0.00000E+00  9.000E+00
      21    -1     0     0   503   504  0.000000000E+00  0.000000000E+00 -1.124948198E+03  1.124948198E+03  0.000000000E+00  0.00000E+00  9.000E+00
       6     2     1     2   502     0  1.549567861E+02 -2.313662884E+01 -8.147975516E+02  8.473641244E+02  1.720000000E+02  0.00000E+00  9.000E+00
      -6     2     1     2     0   504 -1.660368876E+02  4.871004058E+01 -2.199464288E+02  3.284834054E+02  1.720000000E+02  0.00000E+00  9.000E+00
      24     2     3     3     0     0  1.348817416E+02 -4.999099281E+01 -7.747272001E+02  7.949011865E+02  1.047543707E+02  0.00000E+00  9.000E+00
     -24     2     4     4     0     0 -1.471202078E+01  1.939324667E+01 -5.091166368E+01  9.967343177E+01  8.215992899E+01  0.00000E+00  9.000E+00
     -11     1     5     5     0     0  1.256775495E+02  1.303827002E+00 -5.325173284E+02  5.471482902E+02  7.629394531E-06  0.00000E+00  9.000E+00
      12     1     5     5     0     0  9.204192079E+00 -5.129481981E+01 -2.422098717E+02  2.477528963E+02  2.697398305E-06  0.00000E+00  9.000E+00
      13     1     6     6     0     0  1.609189949E+01  3.723624947E+01 -4.956665331E+01  6.404951697E+01  1.168007728E-06  0.00000E+00  9.000E+00
     -14     1     6     6     0     0 -3.080392027E+01 -1.784300281E+01 -1.345010366E+00  3.562391480E+01  2.021291847E-07  0.00000E+00  9.000E+00
       5     1     3     3   502     0  2.007504454E+01  2.685436397E+01 -4.007035152E+01  5.246293785E+01  4.750000000E+00  0.00000E+00  9.000E+00
      -5     1     4     4     0   504 -1.513248668E+02  2.931679391E+01 -1.690347651E+02  2.288099736E+02  4.750000000E+00  0.00000E+00  9.000E+00
      21     1     1     2   511   502  1.108010144E+01 -2.557341174E+01 -9.771126862E+00  2.953375960E+01  1.685873940E-07  0.00000E+00  9.000E+00
</event>
<event>
     13  10001  1.00000E+00  1.30051E+01 -1.00000E+00  1.88848E-01
      21    -1     0     0   503   504  0.000000000E+00  0.000000000E+00  1.803819177E+02  1.803819177E+02  0.000000000E+00  0.00000E+00  9.000E+00
      21    -1     0     0   502   512  0.000000000E+00  0.000000000E+00 -1.983854047E+02  1.983854047E+02  0.000000000E+00  0.00000E+00  9.000E+00
       6     2     1     2   502     0 -3.090539193E-01  1.450872032E+01  2.663655818E+01  1.746542433E+02  1.720000000E+02  0.00000E+00  9.000E+00
      -6     2     1     2     0   504  9.501191772E+00 -2.370850886E+01 -1.843772498E+01  1.748608468E+02  1.720000000E+02  0.00000E+00  9.000E+00
      24     2     3     3     0     0 -7.938126190E+00  4.405784735E+01 -4.155797989E+01  9.979162799E+01  7.891258179E+01  0.00000E+00  9.000E+00
     -24     2     4     4     0     0  3.732783259E+01  1.159999019E+01  4.096368583E+01  1.002143321E+02  8.268592352E+01  0.00000E+00  9.000E+00
     -11     1     5     5     0     0  2.625537322E+01  4.151173776E+01 -4.530095748E+00  4.932636985E+01  5.900558792E-07  0.00000E+00  9.000E+00
      12     1     5     5     0     0 -3.419349941E+01  2.546109590E+00 -3.702788414E+01  5.046525815E+01  6.743495762E-07  0.00000E+00  9.000E+00
      13     1     6     6     0     0  5.130567741E+01 -1.781734490E+01  4.031430793E+01  6.763855216E+01  1.168007728E-06  0.00000E+00  9.000E+00
     -14     1     6     6     0     0 -1.397784482E+01  2.941733508E+01  6.493779027E-01  3.257577997E+01  7.920426252E-07  0.00000E+00  9.000E+00
       5     1     3     3   502     0  7.629072271E+00 -2.954912703E+01  6.819453807E+01  7.486261533E+01  4.750000000E+00  0.00000E+00  9.000E+00
      -5     1     4     4     0   504 -2.782664082E+01 -3.530849904E+01 -5.940141082E+01  7.464651466E+01  4.750000000E+00  0.00000E+00  9.000E+00
      21     1     1     2   503   512 -9.192137853E+00  9.199788541E+00 -2.620232017E+01  2.925223222E+01  0.000000000E+00  0.00000E+00  9.000E+00
</event>
<event>
     13  10001  1.00000E+00  2.39395E+01 -1.00000E+00  1.64251E-01
      21    -1     0     0   503   511  0.000000000E+00  0.000000000E+00  2.605441611E+02  2.605441611E+02  0.000000000E+00  0.00000E+00  9.000E+00
      21    -1     0     0   502   503  0.000000000E+00  0.000000000E+00 -9.941425319E+02  9.941425319E+02  0.000000000E+00  0.00000E+00  9.000E+00
       6     2     1     2   502     0 -1.420306341E+01 -1.737840610E+02 -8.721296706E+02  9.058679756E+02  1.720000000E+02  0.00000E+00  9.000E+00
      -6     2     1     2     0   504 -8.598047165E+00  1.664895111E+02  3.442498609E+01  2.419953788E+02  1.720000000E+02  0.00000E+00  9.000E+00
      24     2     3     3     0     0  3.259298837E+01 -1.578470072E+02 -4.976556952E+02  5.281151717E+02  7.257040001E+01  0.00000E+00  9.000E+00
     -24     2     4     4     0     0  5.066030998E+01  5.005311210E+01  1.869579256E+01  1.103179019E+02  8.215062866E+01  0.00000E+00  9.000E+00
     -11     1     5     5     0     0 -2.110222190E+00 -6.616186926E+01 -1.111283420E+02  1.293497367E+02  1.348699152E-06  0.00000E+00  9.000E+00
      12     1     5     5     0     0  3.470321056E+01 -9.168513799E+01 -3.865273532E+02  3.987654350E+02  5.394796609E-06  0.00000E+00  9.000E+00
      13     1     6     6     0     0  3.919455418E+01  3.780552808E+01 -2.761789963E+01  6.105914682E+01  4.768371582E-07  0.00000E+00  9.000E+00
     -14     1     6     6     0     0  1.146575580E+01  1.224758403E+01  4.631369219E+01  4.925875511E+01  1.348699152E-06  0.00000E+00  9.000E+00
       5     1     3     3   502     0 -4.679605178E+01 -1.593705370E+01 -3.744739753E+02  3.777528039E+02  4.750000000E+00  0.00000E+00  9.000E+00
      -5     1     4     4     0   504 -5.925835715E+01  1.164363990E+02  1.572919353E+01  1.316774769E+02  4.750000000E+00  0.00000E+00  9.000E+00
      21     1     1     2   504   511  2.280111058E+01  7.294549893E+00  1.041063138E+02  1.068233386E+02  2.336015456E-06  0.00000E+00  9.000E+00
</event>
<event>
     13  10001  1.00000E+00  8.83372E+01 -1.00000E+00  1.28787E-01
      21    -1     0     0   512   503  0.000000000E+00  0.000000000E+00  6.986531638E+02  6.986531638E+02  0.000000000E+00  0.00000E+00  9.000E+00
      21    -1     0     0   503   504  0.000000000E+00  0.000000000E+00 -1.546025412E+02  1.546025412E+02  0.000000000E+00  0.00000E+00  9.000E+00
       6     2     1     2   502     0 -1.196178261E+02 -5.864070090E+01  2.273565514E+02  3.146778632E+02  1.720000000E+02  0.00000E+00  9.000E+00
      -6     2     1     2     0   504  3.154680874E+01  5.178784698E+01 -2.641501766E+01  1.842795035E+02  1.720000000E+02  0.00000E+00  9.000E+00
      24     2     3     3     0     0 -1.315807719E+02 -8.984130579E+01  2.135878998E+02  2.782261405E+02  8.003146009E+01  0.00000E+00  9.000E+00
     -24     2     4     4     0     0 -1.835143862E+01 -2.032395873E+01 -4.002834609E+01  9.540975145E+01  8.216394332E+01  0.00000E+00  9.000E+00
     -11     1     5     5     0     0 -6.187093221E+01 -3.666817219E+00  4.551891746E+01  7.689882735E+01  0.000000000E+00  0.00000E+00  9.000E+00
      12     1     5     5     0     0 -6.970983968E+01 -8.617448857E+01  1.680689823E+02  2.013273132E+02  2.697398305E-06  0.00000E+00  9.000E+00
      13     1     6     6     0     0  1.764188801E+01  2.244018993E+01 -3.790157942E+00  2.879520158E+01  8.460920791E-07  0.00000E+00  9.000E+00
     -14     1     6     6     0     0 -3.599332663E+01 -4.276414866E+01 -3.623818815E+01  6.661454986E+01  1.348699152E-06  0.00000E+00  9.000E+00
       5     1     3     3   502     0  1.196294577E+01  3.120060488E+01  1.376865163E+01  3.645172265E+01  4.750000000E+00  0.00000E+00  9.000E+00
      -5     1     4     4     0   504  4.989824736E+01  7.211180571E+01  1.361332843E+01  8.886975201E+01  4.750000000E+00  0.00000E+00  9.000E+00
      21     1     1     2   512   502  8.807101738E+01  6.852853924E+00  3.431090888E+02  3.542983383E+02  3.814697266E-06  0.00000E+00  9.000E+00
</event>
<event>
     13  10001  1.00000E+00  3.15003E+01 -1.00000E+00  1.55216E-01
      21    -1     0     0   511   503  0.000000000E+00  0.000000000E+00  1.148804045E+02  1.148804045E+02  0.000000000E+00  0.00000E+00  9.000E+00
      21    -1     0     0   503   504  0.000000000E+00  0.000000000E+00 -4.187350321E+02  4.187350321E+02  0.000000000E+00  0.00000E+00  9.000E+00
       6     2     1     2   502     0  2.662141794E+01  5.679742097E+01 -2.484535498E+02  3.086224446E+02  1.720000000E+02  0.00000E+00  9.000E+00
      -6     2     1     2     0   504 -5.603860696E+01 -4.553243175E+01 -4.857202209E+01  1.927609119E+02  1.720000000E+02  0.00000E+00  9.000E+00
      24     2     3     3     0     0  4.527613156E+01  3.528965364E+01 -5.841712366E+01  1.164064511E+02  8.272009300E+01  0.00000E+00  9.000E+00
     -24     2     4     4     0     0 -6.374279172E+01  3.370119092E+01 -2.518786127E+01  1.096543363E+02  7.868120072E+01  0.00000E+00  9.000E+00
     -11     1     5     5     0     0  6.699510781E+01  1.085430855E+01 -4.212694441E+01  7.988015980E+01  1.581489940E-06  0.00000E+00  9.000E+00
      12     1     5     5     0     0 -2.171897625E+01  2.443534508E+01 -1.629017925E+01  3.652629133E+01  7.539457465E-07  0.00000E+00  9.000E+00
      13     1     6     6     0     0  2.832771495E+00 -1.290013711E+01  1.416093983E+01  1.936415112E+01  9.078709013E-07  0.00000E+00  9.000E+00
     -14     1     6     6     0     0 -6.657556321E+01  4.660132803E+01 -3.934880109E+01  9.029018517E+01  4.768371582E-07  0.00000E+00  9.000E+00
       5     1     3     3   502     0 -1.865471362E+01  2.150776733E+01 -1.900364262E+02  1.922159935E+02  4.750000000E+00  0.00000E+00  9.000E+00
      -5     1     4     4     0   504  7.704184761E+00 -7.923362267E+01 -2.338416082E+01  8.310657556E+01  4.750000000E+00  0.00000E+00  9.000E+00
      21     1     1     2   511   502  2.941718902E+01 -1.126498922E+01 -6.829055697E+00  3.223208019E+01  4.214684851E-07  0.00000E+00  9.000E+00
</event>
<event>
     13  10001  1.00000E+00  2.58778E+02 -1.00000E+00  1.09513E-01
       2    -1     0     0   502     0  0.000000000E+00  0.000000000E+00  4.489768235E+02  4.489768235E+02  0.000000000E+00  0.00000E+00  9.000E+00
      21    -1     0     0   503   504  0.000000000E+00  0.000000000E+00 -5.386622261E+02  5.386622261E+02  0.000000000E+00  0.00000E+00  9.000E+00
       6     2     1     2   502     0  1.126881419E+02 -9.151812841E+01  8.377046457E+01  2.401576064E+02  1.720000000E+02  0.00000E+00  9.000E+00
      -6     2     1     2     0   504  1.436858914E+02  5.632993393E+01 -3.604819363E+02  4.281937916E+02  1.720000000E+02  0.00000E+00  9.000E+00
      24     2     3     3     0     0  3.226854362E+01  1.525186748E+01  1.044946585E+01  8.762670730E+01  7.934336851E+01  0.00000E+00  9.000E+00
     -24     2     4     4     0     0  1.180843002E+02  8.950354934E+01 -3.438305020E+02  3.828532690E+02  8.001514970E+01  0.00000E+00  9.000E+00
     -11     1     5     5     0     0  5.634774139E+01  2.411003853E+01  5.937135383E+00  6.157606267E+01  1.479348379E-06  0.00000E+00  9.000E+00
      12     1     5     5     0     0 -2.407919777E+01 -8.858171048E+00  4.512330462E+00  2.605064463E+01  9.137219022E-07  0.00000E+00  9.000E+00
      13     1     6     6     0     0  1.060575389E+02  3.505357212E+01 -2.097221461E+02  2.376138318E+02  3.814697266E-06  0.00000E+00  9.000E+00
     -14     1     6     6     0     0  1.202676127E+01  5.444997722E+01 -1.341083559E+02  1.452394373E+02  2.697398305E-06  0.00000E+00  9.000E+00
       5     1     3     3   502     0  8.041959832E+01 -1.067699959E+02  7.332099873E+01  1.525308991E+02  4.750000000E+00  0.00000E+00  9.000E+00
      -5     1     4     4     0   504  2.560159114E+01 -3.317361540E+01 -1.665143422E+01  4.534052260E+01  4.750000000E+00  0.00000E+00  9.000E+00
       2     1     1     2   503     0 -2.563740333E+02  3.518819447E+01  1.870260690E+02  3.192876516E+02  2.697398305E-06  0.00000E+00  9.000E+00
</event>
<event>
     13  10001  1.00000E+00  1.10156E+01 -1.00000E+00  1.96927E-01
      21    -1     0     0   502   503  0.000000000E+00  0.000000000E+00  2.405038050E+02  2.405038050E+02  0.000000000E+00  0.00000E+00  9.000E+00
      21    -1     0     0   503   511  0.000000000E+00  0.000000000E+00 -1.976473328E+02  1.976473328E+02  0.000000000E+00  0.00000E+00  9.000E+00
       6     2     1     2   502     0  9.192875878E+01 -5.772630856E+01  5.025670207E+01  2.095064665E+02  1.720000000E+02  0.00000E+00  9.000E+00
      -6     2     1     2     0   504 -8.579263528E+01  4.857802191E+01  1.985784679E+01  1.992449110E+02  1.720000000E+02  0.00000E+00  9.000E+00
      24     2     3     3     0     0  5.631560360E+01 -7.415815130E+01 -2.426298519E+01  1.251616470E+02  8.003665923E+01  0.00000E+00  9.000E+00
     -24     2     4     4     0     0 -5.512093761E+01  1.376657727E+01 -5.809880131E+01  1.084022382E+02  7.174773949E+01  0.00000E+00  9.000E+00
     -11     1     5     5     0     0 -1.640990210E+01 -3.796954680E+01 -1.150446500E+01  4.293395028E+01  5.331201500E-07  0.00000E+00  9.000E+00
      12     1     5     5     0     0  7.272550569E+01 -3.618860450E+01 -1.275852019E+01  8.222769674E+01  1.517286546E-06  0.00000E+00  9.000E+00
      13     1     6     6     0     0 -2.347758228E+01 -1.243908037E+01 -6.168156533E+01  6.716057692E+01  0.000000000E+00  0.00000E+00  9.000E+00
     -14     1     6     6     0     0 -3.164335533E+01  2.620565763E+01  3.582764014E+00  4.124166129E+01  9.712082587E-07  0.00000E+00  9.000E+00
       5     1     3     3   502     0  3.561315519E+01  1.643184275E+01  7.451968727E+01  8.434481945E+01  4.750000000E+00  0.00000E+00  9.000E+00
      -5     1     4     4     0   504 -3.067169767E+01  3.481144464E+01  7.795664811E+01  9.084267279E+01  4.750000000E+00  0.00000E+00  9.000E+00
      21     1     1     2   504   511 -6.136123504E+00  9.148286649E+00 -2.725807672E+01  2.939976032E+01  3.371747881E-07  0.00000E+00  9.000E+00
</event>
<event>
     13  10001  1.00000E+00  3.04359E+01 -1.00000E+00  1.56291E-01
      21    -1     0     0   502   503  0.000000000E+00  0.000000000E+00  3.704594804E+02  3.704594804E+02  0.000000000E+00  0.00000E+00  9.000E+00
      21    -1     0     0   512   504  0.000000000E+00  0.000000000E+00 -5.775888513E+02  5.775888513E+02  0.000000000E+00  0.00000E+00  9.000E+00
       6     2     1     2   502     0  2.482026639E+01 -1.024156479E+01  2.318378730E+02  2.899202212E+02  1.720000000E+02  0.00000E+00  9.000E+00
      -6     2     1     2     0   504 -5.296205162E+00 -1.310698792E+01  4.084822131E+01  1.773483017E+02  1.720000000E+02  0.00000E+00  9.000E+00
      24     2     3     3     0     0  5.246006590E+01 -2.881160112E+01  2.354961000E+02  2.560860684E+02  8.086714089E+01  0.00000E+00  9.000E+00
     -24     2     4     4     0     0 -3.501180152E+00 -5.069259772E+01  8.401397733E+01  1.198874874E+02  6.879435684E+01  0.00000E+00  9.000E+00
     -11     1     5     5     0     0 -4.489796029E+00  9.049406017E+00  1.298196671E+02  1.302121192E+02  2.697398305E-06  0.00000E+00  9.000E+00
      12     1     5     5     0     0  5.694986193E+01 -3.786100713E+01  1.056764328E+02  1.258739492E+02  3.015782986E-06  0.00000E+00  9.000E+00
      13     1     6     6     0     0 -3.001021846E+01 -2.006936519E+01  1.345218703E+01  3.852731455E+01  1.011524364E-06  0.00000E+00  9.000E+00
     -14     1     6     6     0     0  2.650903830E+01 -3.062323253E+01  7.056179029E+01  8.136017289E+01  0.000000000E+00  0.00000E+00  9.000E+00
       5     1     3     3   502     0 -2.763979951E+01  1.857003632E+01 -3.658226954E+00  3.383415272E+01  4.750000000E+00  0.00000E+00  9.000E+00
      -5     1     4     4     0   504 -1.795025009E+00  3.758560980E+01 -4.316575602E+01  5.746081423E+01  4.750000000E+00  0.00000E+00  9.000E+00
      21     1     1     2   512   503 -1.952406123E+01  2.334855271E+01 -4.798154652E+02  4.807798088E+02  5.394796609E-06  0.00000E+00  9.000E+00
</event>
<event>
     13  10001  1.00000E+00  1.66288E+02 -1.00000E+00  1.16684E-01
      21    -1     0     0   502   503  0.000000000E+00  0.000000000E+00  2.854236928E+02  2.854236928E+02  0.000000000E+00  0.00000E+00  9.000E+00
      -2    -1     0     0     0   504  0.000000000E+00  0.000000000E+00 -7.037269535E+02  7.037269535E+02  0.000000000E+00  0.00000E+00  9.000E+00
       6     2     1     2   502     0  2.877936043E+02 -1.417766156E+02 -2.625353649E+02  4.488146447E+02  1.720000000E+02  0.00000E+00  9.000E+00
      -6     2     1     2     0   504 -1.266420257E+02  1.007674576E+02  8.216435295E+01  2.500545222E+02  1.720000000E+02  0.00000E+00  9.000E+00
      24     2     3     3     0     0  1.434720931E+02 -7.706931629E+01 -2.190330344E+02  2.847087385E+02  8.099181804E+01  0.00000E+00  9.000E+00
     -24     2     4     4     0     0 -4.109578205E+01  2.824630423E+01 -2.296549520E+01  9.626139831E+01  7.907038528E+01  0.00000E+00  9.000E+00
     -11     1     5     5     0     0  1.435764032E+02 -8.936900556E+01 -2.088777008E+02  2.687580633E+02  5.394796609E-06  0.00000E+00  9.000E+00
      12     1     5     5     0     0 -1.043101103E-01  1.229968927E+01 -1.015533359E+01  1.595067513E+01  6.848052319E-07  0.00000E+00  9.000E+00
      13     1     6     6     0     0 -3.539526556E+01 -8.792488326E+00  1.805904204E+01  4.069719492E+01  8.920806376E-07  0.00000E+00  9.000E+00
     -14     1     6     6     0     0 -5.700516497E+00  3.703879255E+01 -4.102453724E+01  5.556420339E+01  8.259061849E-07  0.00000E+00  9.000E+00
       5     1     3     3   502     0  1.443215113E+02 -6.470729926E+01 -4.350233054E+01  1.641059062E+02  4.750000000E+00  0.00000E+00  9.000E+00
      -5     1     4     4     0   504 -8.554624369E+01  7.252115340E+01  1.051298482E+02  1.537931239E+02  4.750000000E+00  0.00000E+00  9.000E+00
      -2     1     1     2     0   503 -1.611515786E+02  4.100915793E+01 -2.379322487E+02  2.902814794E+02  3.814697266E-06  0.00000E+00  9.000E+00
</event>
<event>
     13  10001  1.00000E+00  1.14981E+01 -1.00000E+00  1.94773E-01
      21    -1     0     0   502   511  0.000000000E+00  0.000000000E+00  1.376999392E+02  1.376999392E+02  0.000000000E+00  0.00000E+00  9.000E+00
      21    -1     0     0   503   504  0.000000000E+00  0.000000000E+00 -4.518272827E+02  4.518272827E+02  0.000000000E+00  0.00000E+00  9.000E+00
       6     2     1     2   502     0 -7.175627904E+01  7.651241899E+01 -2.657712891E+02  3.334988635E+02  1.720000000E+02  0.00000E+00  9.000E+00
      -6     2     1     2     0   504  8.146648035E+01 -7.035455995E+01 -8.322678780E+01  2.193108518E+02  1.720000000E+02  0.00000E+00  9.000E+00
      24     2     3     3     0     0 -6.347456033E+01 -1.258589813E+01 -1.903177267E+02  2.163540832E+02  8.000517214E+01  0.00000E+00  9.000E+00
     -24     2     4     4     0     0  6.415099845E+01 -3.210118894E+01  1.651836804E+01  1.109835472E+02  8.305813833E+01  0.00000E+00  9.000E+00
     -11     1     5     5     0     0 -5.165792303E+00  2.918335706E+01 -3.982243201E+01  4.964050594E+01  9.536743164E-07  0.00000E+00  9.000E+00
      12     1     5     5     0     0 -5.830876803E+01 -4.176925519E+01 -1.504952947E+02  1.667135772E+02  1.907348633E-06  0.00000E+00  9.000E+00
      13     1     6     6     0     0  5.198785062E+01 -6.270240455E+00 -2.701512536E+01  5.892257229E+01  1.305872339E-06  0.00000E+00  9.000E+00
     -14     1     6     6     0     0  1.216314783E+01 -2.583094849E+01  4.353349341E+01  5.206097495E+01  9.536743164E-07  0.00000E+00  9.000E+00
       5     1     3     3   502     0 -8.281718710E+00  8.909831713E+01 -7.545356245E+01  1.171447804E+02  4.750000000E+00  0.00000E+00  9.000E+00
      -5     1     4     4     0   504  1.731548190E+01 -3.825337100E+01 -9.974515584E+01  1.083273046E+02  4.750000000E+00  0.00000E+00  9.000E+00
      21     1     1     2   503   511 -9.710201305E+00 -6.157859046E+00  3.487073347E+01  3.671750659E+01  8.259061849E-07  0.00000E+00  9.000E+00
</event>
<event>
     13  10001  1.00000E+00  3.36635E+02 -1.00000E+00  1.05658E-01
       1    -1     0     0   503     0  0.000000000E+00  0.000000000E+00  1.256333681E+03  1.256333681E+03  0.000000000E+00  0.00000E+00  9.000E+00
      21    -1     0     0   502   503  0.000000000E+00  0.000000000E+00 -4.012859956E+02  4.012859956E+02  0.000000000E+00  0.00000E+00  9.000E+00
       6     2     1     2   502     0  4.694152984E+01  4.546372069E+01 -2.280095059E+02  2.929894058E+02  1.720000000E+02  0.00000E+00  9.000E+00
      -6     2     1     2     0   504  1.583636961E+02 -3.122457462E+02  2.428541316E+02  4.594981997E+02  1.720000000E+02  0.00000E+00  9.000E+00
      24     2     3     3     0     0 -2.679447867E+01  1.797710114E+00 -1.687401654E+02  1.886863058E+02  8.005062619E+01  0.00000E+00  9.000E+00
     -24     2     4     4     0     0  2.982059717E+01 -1.530555608E+02  6.490814980E+01  1.882931512E+02  8.322241370E+01  0.00000E+00  9.000E+00
     -11     1     5     5     0     0 -4.096675621E+01  2.699868528E+01 -6.782112301E+01  8.370728073E+01  2.697398305E-06  0.00000E+00  9.000E+00
      12     1     5     5     0     0  1.417227755E+01 -2.520097517E+01 -1.009190424E+02  1.049790251E+02  1.348699152E-06  0.00000E+00  9.000E+00
      13     1     6     6     0     0  5.622662373E+01 -1.225560438E+02  3.906581098E+01  1.403835983E+02  3.754619538E-06  0.00000E+00  9.000E+00
     -14     1     6     6     0     0 -2.640602657E+01 -3.049951709E+01  2.584233882E+01  4.790955288E+01  8.920806376E-07  0.00000E+00  9.000E+00
       5     1     3     3   502     0  7.373600851E+01  4.366601058E+01 -5.926934049E+01  1.043030999E+02  4.750000000E+00  0.00000E+00  9.000E+00
      -5     1     4     4     0   504  1.285430989E+02 -1.591901854E+02  1.779459818E+02  2.712050485E+02  4.750000000E+00  0.00000E+00  9.000E+00
       1     1     1     2   504     0 -2.053052259E+02  2.667820255E+02  8.402030591E+02  9.051320707E+02  0.000000000E+00  0.00000E+00  9.000E+00
</event>
<event>
     13  10001  1.00000E+00  5.04869E+01 -1.00000E+00  1.41862E-01
      21    -1     0     0   503   504  0.000000000E+00  0.000000000E+00  2.500624766E+02  2.500624766E+02  0.000000000E+00  0.00000E+00  9.000E+00
      21    -1     0     0   502   511  0.000000000E+00  0.000000000E+00 -5.326207650E+02  5.326207650E+02  0.000000000E+00  0.00000E+00  9.000E+00
       6     2     1     2   502     0 -8.421767997E+01 -8.551213940E+01 -9.901337559E+01  2.319323008E+02  1.720000000E+02  0.00000E+00  9.000E+00
      -6     2     1     2     0   504  1.030794154E+02  3.868097930E+01  1.241142558E+02  2.389768452E+02  1.720000000E+02  0.00000E+00  9.000E+00
      24     2     3     3     0     0 -6.577135472E+01 -3.162270216E+01 -1.284452425E+02  1.676428331E+02  7.924691023E+01  0.00000E+00  9.000E+00
     -24     2     4     4     0     0  7.135145191E+01  4.164402875E+01  5.152006846E+00  1.157290358E+02  8.087899442E+01  0.00000E+00  9.000E+00
     -11     1     5     5     0     0 -5.484078910E+01  7.067429759E-01 -2.804261321E+01  6.159869959E+01  1.118282261E-06  0.00000E+00  9.000E+00
      12     1     5     5     0     0 -1.093056562E+01 -3.232944514E+01 -1.004026293E+02  1.060441335E+02  1.348699152E-06  0.00000E+00  9.000E+00
      13     1     6     6     0     0  7.693591509E+01  5.911350376E+01  1.535758642E+00  9.703556004E+01  4.626564591E-07  0.00000E+00  9.000E+00
     -14     1     6     6     0     0 -5.584463173E+00 -1.746947501E+01  3.616248204E+00  1.869347579E+01  1.024610605E-06  0.00000E+00  9.000E+00
       5     1     3     3   502     0 -1.844632525E+01 -5.388943724E+01  2.943186693E+01  6.428946766E+01  4.750000000E+00  0.00000E+00  9.000E+00
      -5     1     4     4     0   504  3.172796347E+01 -2.963049450E+00  1.189622490E+02  1.232478094E+02  4.750000000E+00  0.00000E+00  9.000E+00
      21     1     1     2   503   511 -1.886173541E+01  4.683116010E+01 -3.076591687E+02  3.117740956E+02  0.000000000E+00  0.00000E+00  9.000E+00
</event>
<event>
     13  10001  1.00000E+00  5.03251E+01 -1.00000E+00  1.41945E-01
      21    -1     0     0   502   503  0.000000000E+00  0.000000000E+00  9.486361617E+01  9.486361617E+01  0.000000000E+00  0.00000E+00  9.000E+00
      21    -1     0     0   503   512  0.000000000E+00  0.000000000E+00 -6.662319286E+02  6.662319286E+02  0.000000000E+00  0.00000E+00  9.000E+00
       6     2     1     2   502     0 -5.497196584E+00  7.796748486E+01 -2.620694390E+02  3.230689380E+02  1.720000000E+02  0.00000E+00  9.000E+00
      -6     2     1     2     0   504  5.576168270E+01 -8.043627612E+01 -9.803006381E+01  2.208466735E+02  1.720000000E+02  0.00000E+00  9.000E+00
      24     2     3     3     0     0  7.495676678E+00 -2.532257333E+01 -1.315048243E+02  1.560140609E+02  7.968343920E+01  0.00000E+00  9.000E+00
     -24     2     4     4     0     0  1.217210162E+01  2.352630622E+01 -6.129923198E+01  1.021875541E+02  7.735019862E+01  0.00000E+00  9.000E+00
     -11     1     5     5     0     0 -2.868734922E+01 -3.454623215E+01 -5.599658046E+01  7.177759528E+01  1.168007728E-06  0.00000E+00  9.000E+00
      12     1     5     5     0     0  3.618302590E+01  9.223658823E+00 -7.550824386E+01  8.423646560E+01  1.651812370E-06  0.00000E+00  9.000E+00
      13     1     6     6     0     0  4.215443714E+00 -2.715825608E+01 -8.987188979E+00  2.891557374E+01  4.298152060E-07  0.00000E+00  9.000E+00
     -14     1     6     6     0     0  7.956657904E+00  5.068456230E+01 -5.231204301E+01  7.327198035E+01  1.348699152E-06  0.00000E+00  9.000E+00
       5     1     3     3   502     0 -1.299287326E+01  1.032900582E+02 -1.305646147E+02  1.670548772E+02  4.750000000E+00  0.00000E+00  9.000E+00
      -5     1     4     4     0   504  4.358958108E+01 -1.039625823E+02 -3.673083183E+01  1.186591194E+02  4.750000000E+00  0.00000E+00  9.000E+00
      21     1     1     2   504   512 -5.026448611E+01  2.468791255E+00 -2.112688096E+02  2.171799333E+02  4.672030912E-06  0.00000E+00  9.000E+00
</event>
<event>
     13  10001  1.00000E+00  1.52166E+02 -1.00000E+00  1.18240E-01
      21    -1     0     0   511   504  0.000000000E+00  0.000000000E+00  6.597769958E+02  6.597769958E+02  0.000000000E+00  0.00000E+00  9.000E+00
      21    -1     0     0   502   503  0.000000000E+00  0.000000000E+00 -2.575518473E+02  2.575518473E+02  0.000000000E+00  0.00000E+00  9.000E+00
       6     2     1     2   502     0 -6.566932442E+01  4.913713590E+01  8.248371638E+01  2.076402701E+02  1.720000000E+02  0.00000E+00  9.000E+00
      -6     2     1     2     0   504 -5.004110458E+01 -1.479580957E+02 -1.076162549E+02  2.560487621E+02  1.720000000E+02  0.00000E+00  9.000E+00
      24     2     3     3     0     0 -9.855123518E+01  2.419073694E+01  1.521004849E+01  1.285716178E+02  7.747114062E+01  0.00000E+00  9.000E+00
     -24     2     4     4     0     0 -9.177555428E+00 -1.758500510E+01 -2.421444030E-02  8.207870120E+01  7.964579510E+01  0.00000E+00  9.000E+00
     -11     1     5     5     0     0 -3.952222362E+01  3.929362296E+01  3.341302362E+01  6.498019015E+01  1.168007728E-06  0.00000E+00  9.000E+00
      12     1     5     5     0     0 -5.902901157E+01 -1.510288602E+01 -1.820297512E+01  6.359142769E+01  1.430511475E-06  0.00000E+00  9.000E+00
      13     1     6     6     0     0 -3.075082494E+01 -3.740767593E+01 -1.284415056E+01  5.009909836E+01  1.305872339E-06  0.00000E+00  9.000E+00
     -14     1     6     6     0     0  2.157326952E+01  1.982267082E+01  1.281993612E+01  3.197960284E+01  9.684608465E-07  0.00000E+00  9.000E+00
       5     1     3     3   502     0  3.288191077E+01  2.494639896E+01  6.727366789E+01  7.906865225E+01  4.750000000E+00  0.00000E+00  9.000E+00
      -5     1     4     4     0   504 -4.086354915E+01 -1.303730906E+02 -1.075920405E+02  1.739700609E+02  4.750000000E+00  0.00000E+00  9.000E+00
      21     1     1     2   511   503  1.157104290E+02  9.882095979E+01  4.273576870E+02  4.536398110E+02  0.000000000E+00  0.00000E+00  9.000E+00
</event>
<event>
     13  10001  1.00000E+00  1.12718E+01 -1.00000E+00  1.95766E-01
      21    -1     0     0   503   512  0.000000000E+00  0.000000000E+00  2.671605663E+02  2.671605663E+02  0.000000000E+00  0.00000E+00  9.000E+00
      21    -1     0     0   502   503  0.000000000E+00  0.000000000E+00 -4.375958985E+02  4.375958985E+02  0.000000000E+00  0.00000E+00  9.000E+00
       6     2     1     2   502     0  8.402978281E+01  1.768357049E+02 -1.355169081E+02  2.937357712E+02  1.720000000E+02  0.00000E+00  9.000E+00
      -6     2     1     2     0   504 -7.759018650E+01 -1.675844583E+02 -1.511999165E+02  2.941941577E+02  1.720000000E+02  0.00000E+00  9.000E+00
      24     2     3     3     0     0 -1.913560891E+01  5.083169906E+01 -4.571378665E+01  1.077054762E+02  8.099806273E+01  0.00000E+00  9.000E+00
     -24     2     4     4     0     0 -8.079390572E+01 -1.941792750E+02 -1.317703179E+02  2.607633352E+02  8.000533902E+01  0.00000E+00  9.000E+00
     -11     1     5     5     0     0 -3.963599686E+01  3.077142059E+01  3.971523682E+00  5.033552992E+01  4.768371582E-07  0.00000E+00  9.000E+00
      12     1     5     5     0     0  2.050038795E+01  2.006027847E+01 -4.968531033E+01  5.736994632E+01  6.743495762E-07  0.00000E+00  9.000E+00
      13     1     6     6     0     0 -8.077552343E+01 -1.808777616E+02 -9.122234454E+01  2.180893532E+02  4.046097457E-06  0.00000E+00  9.000E+00
     -14     1     6     6     0     0 -1.838229055E-02 -1.330151336E+01 -4.054797339E+01  4.267398202E+01  8.259061849E-07  0.00000E+00  9.000E+00
       5     1     3     3   502     0  1.031653917E+02  1.260040058E+02 -8.980312148E+01  1.860302950E+02  4.750000000E+00  0.00000E+00  9.000E+00
      -5     1     4     4     0   504  3.203719214E+00  2.659481672E+01 -1.942959859E+01  3.343082253E+01  4.750000000E+00  0.00000E+00  9.000E+00
      21     1     1     2   504   512 -6.439596302E+00 -9.251246634E+00  1.162814925E+02  1.168265358E+02  1.348699152E-06  0.00000E+00  9.000E+00
</event>
<event>
     13  10001  1.00000E+00  2.97621E+01 -1.00000E+00  1.56999E-01
      21    -1     0     0   502   511  0.000000000E+00  0.000000000E+00  2.160498614E+02  2.160498614E+02  0.000000000E+00  0.00000E+00  9.000E+00
      21    -1     0     0   503   504  0.000000000E+00  0.000000000E+00 -7.902274626E+02  7.902274626E+02  0.000000000E+00  0.00000E+00  9.000E+00
       6     2     1     2   502     0  1.944401651E+02 -5.396775185E+01 -6.540005554E+02  7.057054786E+02  1.720000000E+02  0.00000E+00  9.000E+00
      -6     2     1     2     0   504 -1.919985870E+02  2.430593847E+01  6.334898437E+01  2.665545533E+02  1.720000000E+02  0.00000E+00  9.000E+00
      24     2     3     3     0     0  1.481437457E+02 -4.486979177E+01 -6.269245900E+02  6.510996023E+02  8.328495012E+01  0.00000E+00  9.000E+00
     -24     2     4     4     0     0 -4.748265107E+01  2.124676307E+01  7.305201986E+01  1.216030935E+02  8.212604734E+01  0.00000E+00  9.000E+00
     -11     1     5     5     0     0  1.468225761E+02 -5.298305915E+01 -4.974458027E+02  5.213601443E+02  1.206313194E-05  0.00000E+00  9.000E+00
      12     1     5     5     0     0  1.321169560E+00  8.113267378E+00 -1.294787873E+02  1.297394580E+02  1.907348633E-06  0.00000E+00  9.000E+00
      13     1     6     6     0     0 -2.171318392E+01  3.828135499E+01  1.919199856E+00  4.405233051E+01  1.285478880E-06  0.00000E+00  9.000E+00
     -14     1     6     6     0     0 -2.576946716E+01 -1.703459192E+01  7.113282000E+01  7.755076299E+01  2.336015456E-06  0.00000E+00  9.000E+00
       5     1     3     3   502     0  4.629641940E+01 -9.097960075E+00 -2.707596540E+01  5.460587632E+01  4.750000000E+00  0.00000E+00  9.000E+00
      -5     1     4     4     0   504 -1.445159360E+02  3.059175400E+00 -9.703035485E+00  1.449514598E+02  4.750000000E+00  0.00000E+00  9.000E+00
      21     1     1     2   503   511 -2.441578076E+00  2.966181338E+01  1.647396983E+01  3.401729205E+01  5.840038640E-07  0.00000E+00  9.000E+00
</event>
<event>
     13  10001  1.00000E+00  8.19524E+01 -1.00000E+00  1.30396E-01
       2    -1     0     0   503     0  0.000000000E+00  0.000000000E+00  7.372804131E+02  7.372804131E+02  0.000000000E+00  0.00000E+00  9.000E+00
      21    -1     0     0   502   503  0.000000000E+00  0.000000000E+00 -1.622020827E+02  1.622020827E+02  0.000000000E+00  0.00000E+00  9.000E+00
       6     2     1     2   502     0 -1.567528306E+02  6.939987323E+01  4.294549727E+01  2.466092213E+02  1.720000000E+02  0.00000E+00  9.000E+00
      -6     2     1     2     0   504  1.852578887E+02 -1.462351723E+02  3.715489603E+02  4.725863316E+02  1.720000000E+02  0.00000E+00  9.000E+00
      24     2     3     3     0     0 -1.226951685E+02  1.030117078E+02  7.031213001E+01  1.912813363E+02  7.732553066E+01  0.00000E+00  9.000E+00
     -24     2     4     4     0     0  8.061416457E+01 -2.127627902E+01  8.680746495E+01  1.444623982E+02  7.989070625E+01  0.00000E+00  9.000E+00
     -11     1     5     5     0     0 -1.012183306E+02  3.601517974E+01  3.934166424E+01  1.144115823E+02  4.768371582E-07  0.00000E+00  9.000E+00
      12     1     5     5     0     0 -2.147683789E+01  6.699652804E+01  3.097046577E+01  7.686975404E+01  2.105655877E-06  0.00000E+00  9.000E+00
      13     1     6     6     0     0  8.515690785E+01 -1.492939348E+01  3.698864421E+01  9.403587371E+01  8.259061849E-07  0.00000E+00  9.000E+00
     -14     1     6     6     0     0 -4.542743283E+00 -6.346885535E+00  4.981882074E+01  5.042652449E+01  9.536743164E-07  0.00000E+00  9.000E+00
       5     1     3     3   502     0 -3.405766217E+01 -3.361183455E+01 -2.736663274E+01  5.532788503E+01  4.750000000E+00  0.00000E+00  9.000E+00
      -5     1     4     4     0   504  1.046437241E+02 -1.249588933E+02  2.847414953E+02  3.281239334E+02  4.750000000E+00  0.00000E+00  9.000E+00
       2     1     1     2   504     0 -2.850505806E+01  7.683529910E+01  1.605838728E+02  1.802869428E+02  0.000000000E+00  0.00000E+00  9.000E+00
</event>
<event>
     13  10001  1.00000E+00  3.35379E+00 -1.00000E+00  2.96590E-01
      21    -1     0     0   503   504  0.000000000E+00  0.000000000E+00  2.733638987E+02  2.733638987E+02  0.000000000E+00  0.00000E+00  9.000E+00
      21    -1     0     0   502   511  0.000000000E+00  0.000000000E+00 -2.185556510E+02  2.185556510E+02  0.000000000E+00  0.00000E+00  9.000E+00
       6     2     1     2   502     0 -1.807474549E+01  1.046473715E+02  1.614756229E+02  2.587202072E+02  1.720000000E+02  0.00000E+00  9.000E+00
      -6     2     1     2     0   504  1.788092920E+01 -1.079955553E+02 -1.059665983E+02  2.297731219E+02  1.720000000E+02  0.00000E+00  9.000E+00
      24     2     3     3     0     0 -3.780274864E+01  2.222492344E+01  1.107410090E+01  8.601863106E+01  7.316812252E+01  0.00000E+00  9.000E+00
     -24     2     4     4     0     0 -5.594180459E+01 -5.382086506E+01 -6.350029017E+01  1.287253960E+02  8.069553708E+01  0.00000E+00  9.000E+00
     -11     1     5     5     0     0 -9.910826049E+00 -2.556035943E+00 -2.930509701E+01  3.104104547E+01  8.920806376E-07  0.00000E+00  9.000E+00
      12     1     5     5     0     0 -2.789192260E+01  2.478095938E+01  4.037919792E+01  5.497758560E+01  1.168007728E-06  0.00000E+00  9.000E+00
      13     1     6     6     0     0 -4.695565662E+00  8.193568810E+00 -4.526027462E+01  4.623500152E+01  0.000000000E+00  0.00000E+00  9.000E+00
     -14     1     6     6     0     0 -5.124623893E+01 -6.201443388E+01 -1.824001555E+01  8.249039447E+01  1.327458468E-06  0.00000E+00  9.000E+00
       5     1     3     3   502     0  1.972800315E+01  8.242244808E+01  1.504015220E+02  1.727015761E+02  4.750000000E+00  0.00000E+00  9.000E+00
      -5     1     4     4     0   504  7.382273379E+01 -5.417469021E+01 -4.246630816E+01  1.010477259E+02  4.750000000E+00  0.00000E+00  9.000E+00
      21     1     1     2   503   511  1.938162978E-01  3.348183763E+00 -7.007768832E-01  3.426220587E+00  3.247632789E-08  0.00000E+00  9.000E+00
</event>
<event>
     13  10001  1.00000E+00  6.10488E+00 -1.00000E+00  2.32620E-01
       1    -1     0     0   503     0  0.000000000E+00  0.000000000E+00  7.105131878E+02  7.105131878E+02  0.000000000E+00  0.00000E+00  9.000E+00
      21    -1     0     0   502   503  0.000000000E+00  0.000000000E+00 -1.288031191E+03  1.288031191E+03  0.000000000E+00  0.00000E+00  9.000E+00
       6     2     1     2   502     0  2.498491319E+00 -2.730546563E+01 -1.152511114E+02  2.088507831E+02  1.720000000E+02  0.00000E+00  9.000E+00
      -6     2     1     2     0   504 -8.170048916E+00  2.504648198E+01 -1.119243374E+03  1.132688751E+03  1.720000000E+02  0.00000E+00  9.000E+00
      24     2     3     3     0     0 -6.411860117E+01  2.117426192E+00 -2.093050705E+01  8.959273311E+01  5.893295506E+01  0.00000E+00  9.000E+00
     -24     2     4     4     0     0  5.657297066E+00 -3.814430001E+01 -8.878489008E+02  8.923759647E+02  8.106910098E+01  0.00000E+00  9.000E+00
     -11     1     5     5     0     0 -5.287979567E+01 -2.441910531E+01 -1.257792143E+01  5.958833444E+01  1.039242493E-06  0.00000E+00  9.000E+00
      12     1     5     5     0     0 -1.123880550E+01  2.653653150E+01 -8.352585615E+00  3.000439867E+01  7.817075878E-07  0.00000E+00  9.000E+00
      13     1     6     6     0     0 -1.716242177E+01  1.158578871E+01 -5.265892758E+02  5.269962472E+02  7.629394531E-06  0.00000E+00  9.000E+00
     -14     1     6     6     0     0  2.281971883E+01 -4.973008873E+01 -3.612596250E+02  3.653797175E+02  5.394796609E-06  0.00000E+00  9.000E+00
       5     1     3     3   502     0  6.661709249E+01 -2.942289183E+01 -9.432060437E+01  1.192580500E+02  4.750000000E+00  0.00000E+00  9.000E+00
      -5     1     4     4     0   504 -1.382734598E+01  6.319078199E+01 -2.313944731E+02  2.403127860E+02  4.750000000E+00  0.00000E+00  9.000E+00
       1     1     1     2   504     0  5.671557597E+00  2.258983657E+00  6.569764816E+02  6.570048455E+02  1.321449896E-05  0.00000E+00  9.000E+00
</event>
<event>
     13  10001  1.00000E+00  1.15734E+01 -1.00000E+00  1.94449E-01
      21    -1     0     0   503   511  0.000000000E+00  0.000000000E+00  4.820158621E+02  4.820158621E+02  0.000000000E+00  0.00000E+00  9.000E+00
      21    -1     0     0   502   503  0.000000000E+00  0.000000000E+00 -1.026830877E+02  1.026830877E+02  0.000000000E+00  0.00000E+00  9.000E+00
       6     2     1     2   502     0 -3.942980739E+01  1.110370455E+00  1.755550773E+01  1.773362300E+02  1.720000000E+02  0.00000E+00  9.000E+00
      -6     2     1     2     0   504  3.425780774E+01  9.243074312E+00  3.416400945E+02  3.841366761E+02  1.720000000E+02  0.00000E+00  9.000E+00
      24     2     3     3     0     0 -2.245465982E+01 -1.915803522E+01 -5.409045084E+01  1.008204161E+02  7.979810379E+01  0.00000E+00  9.000E+00
     -24     2     4     4     0     0 -3.309891044E+01  4.506851633E+01  2.128931129E+02  2.344077960E+02  8.060290491E+01  0.00000E+00  9.000E+00
     -11     1     5     5     0     0 -3.268746487E+01  2.411132842E+01 -2.555001815E+01  4.798572648E+01  1.118282261E-06  0.00000E+00  9.000E+00
      12     1     5     5     0     0  1.023280505E+01 -4.326936364E+01 -2.854043269E+01  5.283468962E+01  1.430511475E-06  0.00000E+00  9.000E+00
      13     1     6     6     0     0  7.841283016E+00  5.391414297E+01  9.811976875E+01  1.122306088E+02  2.336015456E-06  0.00000E+00  9.000E+00
     -14     1     6     6     0     0 -4.094019346E+01 -8.845626646E+00  1.147733441E+02  1.221771872E+02  1.907348633E-06  0.00000E+00  9.000E+00
       5     1     3     3   502     0 -1.697514757E+01  2.026840567E+01  7.164595858E+01  7.651581395E+01  4.750000000E+00  0.00000E+00  9.000E+00
      -5     1     4     4     0   504  6.735671819E+01 -3.582544201E+01  1.287469816E+02  1.497288801E+02  4.750000000E+00  0.00000E+00  9.000E+00
      21     1     1     2   504   511  5.171999650E+00 -1.035344477E+01  2.013717221E+01  2.322604365E+01  4.768371582E-07  0.00000E+00  9.000E+00
</event>
<event>
     13  10001  1.00000E+00  2.62131E+01 -1.00000E+00  1.61146E-01
      21    -1     0     0   502   512  0.000000000E+00  0.000000000E+00  1.636616310E+02  1.636616310E+02  0.000000000E+00  0.00000E+00  9.000E+00
      21    -1     0     0   503   504  0.000000000E+00  0.000000000E+00 -3.209317109E+02  3.209317109E+02  0.000000000E+00  0.00000E+00  9.000E+00
       6     2     1     2   502     0  8.989576175E+01  4.852537545E+01 -1.072524594E+02  2.269868941E+02  1.720000000E+02  0.00000E+00  9.000E+00
      -6     2     1     2     0   504 -9.473203777E+01 -2.276229886E+01 -8.391922654E+01  2.147526899E+02  1.720000000E+02  0.00000E+00  9.000E+00
      24     2     3     3     0     0  4.731322642E+01 -1.811811678E+01 -1.337358897E+00  9.471747820E+01  8.001752681E+01  0.00000E+00  9.000E+00
     -24     2     4     4     0     0 -5.058274940E+01 -5.710346166E+01 -1.060526270E+02  1.544126116E+02  8.232056291E+01  0.00000E+00  9.000E+00
     -11     1     5     5     0     0  4.494674789E+00 -3.150293342E+01  2.693428068E+01  4.169043524E+01  1.011524364E-06  0.00000E+00  9.000E+00
      12     1     5     5     0     0  4.281855163E+01  1.338481664E+01 -2.827163957E+01  5.302704295E+01  9.536743164E-07  0.00000E+00  9.000E+00
      13     1     6     6     0     0 -4.291800816E+01 -2.046057497E+01 -6.417671566E+00  4.797683879E+01  9.499417216E-07  0.00000E+00  9.000E+00
     -14     1     6     6     0     0 -7.664741239E+00 -3.664288669E+01 -9.963495541E+01  1.064357729E+02  1.907348633E-06  0.00000E+00  9.000E+00
       5     1     3     3   502     0  4.258253534E+01  6.664349222E+01 -1.059151005E+02  1.322694159E+02  4.750000000E+00  0.00000E+00  9.000E+00
      -5     1     4     4     0   504 -4.414928838E+01  3.434116279E+01  2.213340044E+01  6.034007824E+01  4.750000000E+00  0.00000E+00  9.000E+00
      21     1     1     2   503   512  4.836276020E+00 -2.576307658E+01  3.390160603E+01  4.285375797E+01  6.743495762E-07  0.00000E+00  9.000E+00
</event>
<event>
     13  10001  1.00000E+00  1.95805E+01 -1.00000E+00  1.71589E-01
      21    -1     0     0   511   503  0.000000000E+00  0.000000000E+00  3.058501506E+02  3.058501506E+02  0.000000000E+00  0.00000E+00  9.000E+00
      21    -1     0     0   503   504  0.000000000E+00  0.000000000E+00 -1.489566341E+02  1.489566341E+02  0.000000000E+00  0.00000E+00  9.000E+00
       6     2     1     2   502     0  2.339677485E+01  9.263180683E+01  6.067384431E+00  1.968473364E+02  1.720000000E+02  0.00000E+00  9.000E+00
      -6     2     1     2     0   504 -1.042189660E+01 -7.796723242E+01  1.308363264E+02  2.299774980E+02  1.720000000E+02  0.00000E+00  9.000E+00
      24     2     3     3     0     0  8.701651458E+00 -1.243507500E+01  3.287473488E+01  8.732020352E+01  7.945891971E+01  0.00000E+00  9.000E+00
     -24     2     4     4     0     0  4.040670971E+01  4.396947779E+00  8.210548582E+01  1.215124680E+02  7.982439314E+01  0.00000E+00  9.000E+00
     -11     1     5     5     0     0  8.701665885E+00 -4.266629959E+01  1.238765732E+00  4.356221586E+01  7.821335478E-07  0.00000E+00  9.000E+00
      12     1     5     5     0     0 -1.442680185E-05  3.023122459E+01  3.163596914E+01  4.375798766E+01  8.920806376E-07  0.00000E+00  9.000E+00
      13     1     6     6     0     0 -2.354587864E+01  9.553457679E+00  2.394458276E+01  3.491446689E+01  9.536743164E-07  0.00000E+00  9.000E+00
     -14     1     6     6     0     0  6.395258836E+01 -5.156509901E+00  5.816090305E+01  8.659800111E+01  1.784161275E-06  0.00000E+00  9.000E+00
       5     1     3     3   502     0  1.469512339E+01  1.050668818E+02 -2.680735044E+01  1.095271329E+02  4.750000000E+00  0.00000E+00  9.000E+00
      -5     1     4     4     0   504 -5.082860631E+01 -8.236418020E+01  4.873084062E+01  1.084650300E+02  4.750000000E+00  0.00000E+00  9.000E+00
      21     1     1     2   511   502 -1.297487825E+01 -1.466457441E+01  1.998980570E+01  2.798195025E+01  4.129530925E-07  0.00000E+00  9.000E+00
</event>
<event>
     13  10001  1.00000E+00  1.37972E+02 -1.00000E+00  1.20007E-01
      21    -1     0     0   502   512  0.000000000E+00  0.000000000E+00  2.507302756E+02  2.507302756E+02  0.000000000E+00  0.00000E+00  9.000E+00
      21    -1     0     0   503   504  0.000000000E+00  0.000000000E+00 -7.836286268E+02  7.836286268E+02  0.000000000E+00  0.00000E+00  9.000E+00
       6     2     1     2   502     0 -2.746651904E+01 -1.544227311E+02 -6.126422001E+02  6.553741335E+02  1.720000000E+02  0.00000E+00  9.000E+00
      -6     2     1     2     0   504 -4.134334127E+01  3.483345683E+01 -5.258839695E+01  1.878088951E+02  1.720000000E+02  0.00000E+00  9.000E+00
      24     2     3     3     0     0 -4.051961892E+01 -1.272752255E+01 -2.135439389E+02  2.316408447E+02  7.907362204E+01  0.00000E+00  9.000E+00
     -24     2     4     4     0     0  2.877418760E+01 -2.440648515E+01 -4.109512978E+01  9.517792689E+01  7.711288923E+01  0.00000E+00  9.000E+00
     -11     1     5     5     0     0  2.295280200E+01  3.805715907E+00 -7.136814024E+01  7.506481222E+01  2.132480600E-06  0.00000E+00  9.000E+00
      12     1     5     5     0     0 -6.347242092E+01 -1.653323846E+01 -1.421757987E+02  1.565760324E+02  2.697398305E-06  0.00000E+00  9.000E+00
      13     1     6     6     0     0  9.026450715E+00  1.202921459E+01 -5.049085873E+01  5.268306779E+01  0.000000000E+00  0.00000E+00  9.000E+00
     -14     1     6     6     0     0  1.974773688E+01 -3.643569974E+01  9.395728949E+00  4.249485910E+01  9.461944024E-07  0.00000E+00  9.000E+00
       5     1     3     3   502     0  1.305309988E+01 -1.416952086E+02 -3.990982612E+02  4.237332889E+02  4.750000000E+00  0.00000E+00  9.000E+00
      -5     1     4     4     0   504 -7.011752887E+01  5.923994198E+01 -1.149326717E+01  9.263096821E+01  4.750000000E+00  0.00000E+00  9.000E+00
      21     1     1     2   503   512  6.880986031E+01  1.195892743E+02  1.323322459E+02  1.911758737E+02  3.303624740E-06  0.00000E+00  9.000E+00
</event>
<event>
     13  10001  1.00000E+00  2.90052E+01 -1.00000E+00  1.57823E-01
      -2    -1     0     0     0   512  0.000000000E+00  0.000000000E+00  8.247664342E+02  8.247664342E+02  0.000000000E+00  0.00000E+00  9.000E+00
       2    -1     0     0   511     0  0.000000000E+00  0.000000000E+00 -2.512017353E+02  2.512017353E+02  0.000000000E+00  0.00000E+00  9.000E+00
       6     2     1     2   502     0  4.243055569E+01  2.989251787E+02  5.738427550E+02  6.708473164E+02  1.720000000E+02  0.00000E+00  9.000E+00
      -6     2     1     2     0   512 -2.304926352E+01 -2.773457920E+02  6.511797587E+01  3.335810361E+02  1.720000000E+02  0.00000E+00  9.000E+00
      24     2     3     3     0     0  3.778445203E+01  6.352838126E+01  2.317933756E+02  2.555720114E+02  7.826470470E+01  0.00000E+00  9.000E+00
     -24     2     4     4     0     0  9.646640581E+00 -7.015203286E+01  6.093594823E+01  1.237279260E+02  8.112363713E+01  0.00000E+00  9.000E+00
     -11     1     5     5     0     0  4.604329665E+01  2.762487530E+01  6.287341284E+01  8.268122485E+01  1.507891493E-06  0.00000E+00  9.000E+00
      12     1     5     5     0     0 -8.258844615E+00  3.590350596E+01  1.689199628E+02  1.728907866E+02  0.000000000E+00  0.00000E+00  9.000E+00
      13     1     6     6     0     0  4.354159566E+01 -3.482072861E+01  1.793977895E+01  5.856781849E+01  8.259061849E-07  0.00000E+00  9.000E+00
     -14     1     6     6     0     0 -3.389495508E+01 -3.533130425E+01  4.299616928E+01  6.516010753E+01  1.430511475E-06  0.00000E+00  9.000E+00
       5     1     3     3   502     0  4.646103660E+00  2.353967974E+02  3.420493793E+02  4.152753050E+02  4.750000000E+00  0.00000E+00  9.000E+00
      -5     1     4     4     0   512 -3.269590410E+01 -2.071937591E+02  4.182027635E+00  2.098531101E+02  4.750000000E+00  0.00000E+00  9.000E+00
      21     1     1     2   511   502 -1.938129217E+01 -2.157938670E+01 -6.539603191E+01  7.153981692E+01  1.907348633E-06  0.00000E+00  9.000E+00
</event>
<event>
     13  10001  1.00000E+00  5.34184E+00 -1.00000E+00  2.42672E-01
      21    -1     0     0   503   504  0.000000000E+00  0.000000000E+00  3.136780986E+02  3.136780986E+02  0.000000000E+00  0.00000E+00  9.000E+00
      21    -1     0     0   502   512  0.000000000E+00  0.000000000E+00 -1.069256326E+02  1.069256326E+02  0.000000000E+00  0.00000E+00  9.000E+00
       6     2     1     2   502     0 -8.409309781E+00 -3.725371460E+01  5.737930264E+01  1.852968972E+02  1.720000000E+02  0.00000E+00  9.000E+00
      -6     2     1     2     0   504  1.167426714E+01  3.302579434E+01  1.484458437E+02  2.298851020E+02  1.720000000E+02  0.00000E+00  9.000E+00
      24     2     3     3     0     0 -6.442862569E+01  7.082916528E+00  2.983638083E+01  1.085826504E+02  8.184599466E+01  0.00000E+00  9.000E+00
     -24     2     4     4     0     0  5.420223205E+01  4.686611652E+01  4.474890724E+01  1.168550199E+02  8.073608951E+01  0.00000E+00  9.000E+00
     -11     1     5     5     0     0 -4.843439598E+01 -3.386669989E+01  2.563349956E+01  6.441987563E+01  9.536743164E-07  0.00000E+00  9.000E+00
      12     1     5     5     0     0 -1.599422970E+01  4.094961642E+01  4.202881263E+00  4.416277482E+01  9.812162896E-07  0.00000E+00  9.000E+00
      13     1     6     6     0     0  1.542101697E+01  5.040828648E+01 -5.813867309E+00  5.303399064E+01  1.800020799E-06  0.00000E+00  9.000E+00
     -14     1     6     6     0     0  3.878121508E+01 -3.542169960E+00  5.056277455E+01  6.382102930E+01  1.168007728E-06  0.00000E+00  9.000E+00
       5     1     3     3   502     0  5.601931590E+01 -4.433663113E+01  2.754292181E+01  7.671424676E+01  4.750000000E+00  0.00000E+00  9.000E+00
      -5     1     4     4     0   504 -4.252796491E+01 -1.384032218E+01  1.036969364E+02  1.130300820E+02  4.750000000E+00  0.00000E+00  9.000E+00
      21     1     1     2   503   512 -3.264957356E+00  4.227920267E+00  9.273197327E-01  5.421732030E+00  4.214684851E-08  0.00000E+00  9.000E+00
</event>
<event>
     13  10001  1.00000E+00  1.52213E+01 -1.00000E+00  1.81801E-01
      21    -1     0     0   503   504  0.000000000E+00  0.000000000E+00  2.007493937E+02  2.007493937E+02  0.000000000E+00  0.00000E+00  9.000E+00
      21    -1     0     0   511   503  0.000000000E+00  0.000000000E+00 -2.010405533E+02  2.010405533E+02  0.000000000E+00  0.00000E+00  9.000E+00
       6     2     1     2   502     0  5.555907167E+01 -6.505055770E+01  9.984548272E+00  1.923592387E+02  1.720000000E+02  0.00000E+00  9.000E+00
      -6     2     1     2     0   504 -4.078930969E+01  6.873033174E+01  2.316399448E+00  1.896760185E+02  1.720000000E+02  0.00000E+00  9.000E+00
      24     2     3     3     0     0  3.574189609E+01 -5.845901736E+01  7.056033926E+01  1.281084970E+02  8.208584337E+01  0.00000E+00  9.000E+00
     -24     2     4     4     0     0  2.441559321E+01 -1.148397216E+01  8.043284789E-01  8.618272030E+01  8.184626763E+01  0.00000E+00  9.000E+00
     -11     1     5     5     0     0  9.124843160E+00 -3.076382001E+01 -1.416982133E+01  3.507790217E+01  5.591411304E-07  0.00000E+00  9.000E+00
      12     1     5     5     0     0  2.661705293E+01 -2.769519736E+01  8.473016059E+01  9.303059484E+01  9.536743164E-07  0.00000E+00  9.000E+00
      13     1     6     6     0     0  6.898360922E+00 -4.244277821E+01  1.807065056E+01  4.664252585E+01  1.092571186E-06  0.00000E+00  9.000E+00
     -14     1     6     6     0     0  1.751723229E+01  3.095880605E+01 -1.726632208E+01  3.954019445E+01  5.331201500E-07  0.00000E+00  9.000E+00
       5     1     3     3   502     0  1.981717557E+01 -6.591540338E+00 -6.057579099E+01  6.425074167E+01  4.750000000E+00  0.00000E+00  9.000E+00
      -5     1     4     4     0   504 -6.520490290E+01  8.021430390E+01  1.512070969E+00  1.034932982E+02  4.750000000E+00  0.00000E+00  9.000E+00
      21     1     1     2   511   502 -1.476976198E+01 -3.679774037E+00 -1.259210728E+01  1.975468986E+01  3.769728732E-07  0.00000E+00  9.000E+00
</event>
<event>
     13  10001  1.00000E+00  1.01895E+02 -1.00000E+00  1.25836E-01
      21    -1     0     0   512   504  0.000000000E+00  0.000000000E+00  2.154171135E+02  2.154171135E+02  0.000000000E+00  0.00000E+00  9.000E+00
      21    -1     0     0   502   503  0.000000000E+00  0.000000000E+00 -3.365137016E+02  3.365137016E+02  0.000000000E+00  0.00000E+00  9.000E+00
       6     2     1     2   502     0 -3.068835619E+01 -5.172375796E+00 -4.342041246E+01  1.801051384E+02  1.720000000E+02  0.00000E+00  9.000E+00
      -6     2     1     2     0   504 -2.837140832E+01 -7.786138638E+01 -1.533671445E+02  2.448934734E+02  1.720000000E+02  0.00000E+00  9.000E+00
      24     2     3     3     0     0 -2.553769218E+01  4.780122951E+01 -7.056948439E+01  1.201687822E+02  8.076727563E+01  0.00000E+00  9.000E+00
     -24     2     4     4     0     0  2.823354411E+01 -5.746215268E+00 -1.202424025E+02  1.472997770E+02  8.005521180E+01  0.00000E+00  9.000E+00
     -11     1     5     5     0     0  4.009134066E+00  2.612956919E+01 -7.836716040E+01  8.270573965E+01  1.907348633E-06  0.00000E+00  9.000E+00
      12     1     5     5     0     0 -2.954682625E+01  2.167166033E+01  7.797676009E+00  3.746304251E+01  3.576278687E-07  0.00000E+00  9.000E+00
      13     1     6     6     0     0  4.076858096E+01 -3.141910768E+01 -9.939946616E+01  1.119352107E+02  1.348699152E-06  0.00000E+00  9.000E+00
     -14     1     6     6     0     0 -1.253503686E+01  2.567289241E+01 -2.084293638E+01  3.536456632E+01  5.331201500E-07  0.00000E+00  9.000E+00
       5     1     3     3   502     0 -5.150664010E+00 -5.297360531E+01  2.714907193E+01  5.993635629E+01  4.750000000E+00  0.00000E+00  9.000E+00
      -5     1     4     4     0   504 -5.660495242E+01 -7.211517111E+01 -3.312474197E+01  9.759369638E+01  4.750000000E+00  0.00000E+00  9.000E+00
      21     1     1     2   512   503  5.905976451E+01  8.303376218E+01  7.569096889E+01  1.269322032E+02  1.651812370E-06  0.00000E+00  9.000E+00
</event>
<event>
     13  10001  1.00000E+00  1.34717E+01 -1.00000E+00  1.87220E-01
      21    -1     0     0   502   511  0.000000000E+00  0.000000000E+00  1.503132301E+02  1.503132301E+02  0.000000000E+00  0.00000E+00  9.000E+00
      21    -1     0     0   503   504  0.000000000E+00  0.000000000E+00 -3.630424973E+02  3.630424973E+02  0.000000000E+00  0.00000E+00  9.000E+00
       6     2     1     2   502     0  7.844459084E+01 -8.865539849E+01 -1.188271898E+02  2.402441145E+02  1.720000000E+02  0.00000E+00  9.000E+00
      -6     2     1     2     0   504 -6.888871553E+01  7.915951816E+01 -1.264560573E+02  2.378802616E+02  1.720000000E+02  0.00000E+00  9.000E+00
      24     2     3     3     0     0  8.664689099E+01 -1.297389119E+01 -3.094906225E+01  1.238821960E+02  8.193258484E+01  0.00000E+00  9.000E+00
     -24     2     4     4     0     0 -1.011317905E+02  2.358678799E+01 -1.068813490E+02  1.705476846E+02  8.293922075E+01  0.00000E+00  9.000E+00
     -11     1     5     5     0     0  6.263650929E+01  2.700922009E+01 -3.572346623E+01  7.699997601E+01  1.261592536E-06  0.00000E+00  9.000E+00
      12     1     5     5     0     0  2.401038170E+01 -3.998311128E+01  4.774403976E+00  4.688221998E+01  6.136673773E-07  0.00000E+00  9.000E+00
      13     1     6     6     0     0 -3.298495612E+01 -3.086652844E+01 -2.960605973E+01  5.401174576E+01  6.743495762E-07  0.00000E+00  9.000E+00
     -14     1     6     6     0     0 -6.814683442E+01  5.445331643E+01 -7.727528925E+01  1.165359388E+02  9.536743164E-07  0.00000E+00  9.000E+00
       5     1     3     3   502     0 -8.202300144E+00 -7.568150729E+01 -8.787812759E+01  1.163619185E+02  4.750000000E+00  0.00000E+00  9.000E+00
      -5     1     4     4     0   504  3.224307500E+01  5.557273017E+01 -1.957470835E+01  6.733257704E+01  4.750000000E+00  0.00000E+00  9.000E+00
      21     1     1     2   503   511 -9.555875309E+00  9.495880325E+00  3.255398003E+01  3.523135126E+01  0.000000000E+00  0.00000E+00  9.000E+00
</event>
<event>
     13  10001  1.00000E+00  5.41261E+01 -1.00000E+00  1.40089E-01
      21    -1     0     0   512   503  0.000000000E+00  0.000000000E+00  4.345105723E+02  4.345105723E+02  0.000000000E+00  0.00000E+00  9.000E+00
      21    -1     0     0   503   504  0.000000000E+00  0.000000000E+00 -1.061825081E+02  1.061825081E+02  0.000000000E+00  0.00000E+00  9.000E+00
       6     2     1     2   502     0  1.431880299E+01  1.936021576E+01  6.155092577E+01  1.842616687E+02  1.720000000E+02  0.00000E+00  9.000E+00
      -6     2     1     2     0   504  1.528931723E+00  3.239387490E+01  1.619758259E+02  2.384782358E+02  1.720000000E+02  0.00000E+00  9.000E+00
      24     2     3     3     0     0  7.669328367E+01  2.101067146E+01  4.720383859E+01  1.200611916E+02  7.657139986E+01  0.00000E+00  9.000E+00
     -24     2     4     4     0     0  1.519508719E+00 -4.162289630E+01  1.283915260E+02  1.570598705E+02  8.030345298E+01  0.00000E+00  9.000E+00
     -11     1     5     5     0     0  4.887437753E+01 -3.411745714E-01  6.452667493E+01  8.094759389E+01  9.536743164E-07  0.00000E+00  9.000E+00
      12     1     5     5     0     0  2.781890614E+01  2.135184603E+01 -1.732283634E+01  3.911359771E+01  1.066240300E-06  0.00000E+00  9.000E+00
      13     1     6     6     0     0  3.456785944E+01  3.050827545E+00  5.437963275E+01  6.450882817E+01  1.507891493E-06  0.00000E+00  9.000E+00
     -14     1     6     6     0     0 -3.304835072E+01 -4.467372385E+01  7.401189328E+01  9.255104232E+01  9.536743164E-07  0.00000E+00  9.000E+00
       5     1     3     3   502     0 -6.237448068E+01 -1.650455693E+00  1.434708718E+01  6.420047706E+01  4.750000000E+00  0.00000E+00  9.000E+00
      -5     1     4     4     0   504  9.423004543E-03  7.401677120E+01  3.358429988E+01  8.141836529E+01  4.750000000E+00  0.00000E+00  9.000E+00
      21     1     1     2   512   502 -1.584773472E+01 -5.175409066E+01  1.048013126E+02  1.179531759E+02  0.000000000E+00  0.00000E+00  9.000E+00
</event>
<event>
     13  10001  1.00000E+00  3.10042E+01 -1.00000E+00  1.55710E-01
      21    -1     0     0   502   503  0.000000000E+00  0.000000000E+00  1.065259746E+03  1.065259746E+03  0.000000000E+00  0.00000E+00  9.000E+00
      21    -1     0     0   511   504  0.000000000E+00  0.000000000E+00 -7.424311761E+01  7.424311761E+01  0.000000000E+00  0.00000E+00  9.000E+00
       6     2     1     2   502     0  6.390836127E+01  1.389702404E+01  1.404321915E+02  2.314791704E+02  1.720000000E+02  0.00000E+00  9.000E+00
      -6     2     1     2     0   504 -8.789726894E+01  5.744630459E+00  8.551257430E+02  8.766886374E+02  1.720000000E+02  0.00000E+00  9.000E+00
      24     2     3     3     0     0 -1.656961760E+01  1.152065060E+01  1.241266197E+02  1.491943820E+02  8.027619993E+01  0.00000E+00  9.000E+00
     -24     2     4     4     0     0 -6.585944834E+01  6.307496733E+01  6.398786566E+02  6.527995940E+02  9.157890764E+01  0.00000E+00  9.000E+00
     -11     1     5     5     0     0 -4.877715499E+01  1.308550062E+01  7.390145475E+01  8.950902853E+01  9.536743164E-07  0.00000E+00  9.000E+00
      12     1     5     5     0     0  3.220753739E+01 -1.564850025E+00  5.022516497E+01  5.968535345E+01  1.168007728E-06  0.00000E+00  9.000E+00
      13     1     6     6     0     0 -3.704318975E+01 -9.237428704E+00  3.686495716E+02  3.706211471E+02  5.394796609E-06  0.00000E+00  9.000E+00
     -14     1     6     6     0     0 -2.881625860E+01  7.231239604E+01  2.712290849E+02  2.821784469E+02  3.814697266E-06  0.00000E+00  9.000E+00
       5     1     3     3   502     0  8.047797887E+01  2.376373437E+00  1.630557179E+01  8.228478842E+01  4.750000000E+00  0.00000E+00  9.000E+00
      -5     1     4     4     0   504 -2.203782060E+01 -5.733033688E+01  2.152470864E+02  2.238890435E+02  4.750000000E+00  0.00000E+00  9.000E+00
      21     1     1     2   511   503  2.398890767E+01 -1.964165449E+01 -4.541305785E+00  3.133505610E+01  8.085167388E-07  0.00000E+00  9.000E+00
</event>
<event>
     13  10001  1.00000E+00  5.23965E+00 -1.00000E+00  2.44203E-01
      21    -1     0     0   503   512  0.000000000E+00  0.000000000E+00  1.822668369E+02  1.822668369E+02  0.000000000E+00  0.00000E+00  9.000E+00
      21    -1     0     0   502   503  0.000000000E+00  0.000000000E+00 -3.510108913E+02  3.510108913E+02  0.000000000E+00  0.00000E+00  9.000E+00
       6     2     1     2   502     0 -9.030685480E+01 -1.171748096E+02 -1.950854272E+02  2.992116106E+02  1.720000000E+02  0.00000E+00  9.000E+00
      -6     2     1     2     0   504  9.055418390E+01  1.119410016E+02  1.909105567E+01  2.251206709E+02  1.720000000E+02  0.00000E+00  9.000E+00
      24     2     3     3     0     0 -2.073567392E+01 -1.070220066E+01 -2.856263568E+01  8.961922466E+01  8.167787950E+01  0.00000E+00  9.000E+00
     -24     2     4     4     0     0 -7.512200431E+00  3.088092078E+01  4.030198643E+01  9.604620200E+01  8.118225413E+01  0.00000E+00  9.000E+00
     -11     1     5     5     0     0  9.912410931E+00  2.857185473E+01 -2.575468244E+01  3.972292085E+01  5.840038640E-07  0.00000E+00  9.000E+00
      12     1     5     5     0     0 -3.064808486E+01 -3.927405539E+01 -2.807953235E+00  4.989630381E+01  1.093383809E-06  0.00000E+00  9.000E+00
      13     1     6     6     0     0 -2.441910405E+01 -1.262142093E+01  4.100815343E+01  4.936862927E+01  2.023048729E-06  0.00000E+00  9.000E+00
     -14     1     6     6     0     0  1.690690362E+01  4.350234171E+01 -7.061669973E-01  4.667757273E+01  8.936349487E-07  0.00000E+00  9.000E+00
       5     1     3     3   502     0 -6.957118087E+01 -1.064726089E+02 -1.665227915E+02  2.095923860E+02  4.750000000E+00  0.00000E+00  9.000E+00
      -5     1     4     4     0   504  9.806638433E+01  8.106008084E+01 -2.121093076E+01  1.290744689E+02  4.750000000E+00  0.00000E+00  9.000E+00
      21     1     1     2   504   512 -2.473291029E-01  5.233807945E+00  7.250317178E+00  8.945446689E+00  2.528810911E-07  0.00000E+00  9.000E+00
</event>
<event>
     13  10001  1.00000E+00  1.70652E+01 -1.00000E+00  1.77012E-01
      21    -1     0     0   503   504  0.000000000E+00  0.000000000E+00  1.000526124E+02  1.000526124E+02  0.000000000E+00  0.00000E+00  9.000E+00
      21    -1     0     0   502   511  0.000000000E+00  0.000000000E+00 -7.733296022E+02  7.733296022E+02  0.000000000E+00  0.00000E+00  9.000E+00
       6     2     1     2   502     0  2.917965482E+01  7.730987717E+01 -1.561233276E+02  2.465497167E+02  1.720000000E+02  0.00000E+00  9.000E+00
      -6     2     1     2     0   504 -1.987329297E+01 -6.300557693E+01 -1.005938084E+02  2.099232355E+02  1.720000000E+02  0.00000E+00  9.000E+00
      24     2     3     3     0     0  8.513063426E+00  9.607394127E+01 -4.625534212E+01  1.330916414E+02  7.919061751E+01  0.00000E+00  9.000E+00
     -24     2     4     4     0     0 -6.623550187E+01 -3.864729226E+01 -1.101031144E+02  1.564838320E+02  8.052166762E+01  0.00000E+00  9.000E+00
     -11     1     5     5     0     0 -2.857019871E+01  5.446247109E+01 -4.691087906E+01  7.735016216E+01  1.348699152E-06  0.00000E+00  9.000E+00
      12     1     5     5     0     0  3.708326214E+01  4.161147018E+01  6.555369418E-01  5.574147926E+01  1.757673920E-06  0.00000E+00  9.000E+00
      13     1     6     6     0     0 -3.816215851E+01  1.584273700E+01 -7.557038211E+01  8.612911999E+01  1.348699152E-06  0.00000E+00  9.000E+00
     -14     1     6     6     0     0 -2.807334336E+01 -5.449002927E+01 -3.453273230E+01  7.035471197E+01  4.768371582E-07  0.00000E+00  9.000E+00
       5     1     3     3   502     0  2.066659139E+01 -1.876406411E+01 -1.098679855E+02  1.134580752E+02  4.750000000E+00  0.00000E+00  9.000E+00
      -5     1     4     4     0   504  4.636220890E+01 -2.435828467E+01  9.509305996E+00  5.343940350E+01  4.750000000E+00  0.00000E+00  9.000E+00
      21     1     1     2   503   511 -9.306361851E+00 -1.430430023E+01 -4.165598538E+02  4.169092625E+02  0.000000000E+00  0.00000E+00  9.000E+00
</event>
<event>
     13  10001  1.00000E+00  9.35935E+00 -1.00000E+00  2.05589E-01
      -2    -1     0     0     0   513  0.000000000E+00  0.000000000E+00  5.713825558E+01  5.713825558E+01  0.000000000E+00  0.00000E+00  9.000E+00
       2    -1     0     0   502     0  0.000000000E+00  0.000000000E+00 -9.877488584E+02  9.877488584E+02  0.000000000E+00  0.00000E+00  9.000E+00
       6     2     1     2   502     0 -9.115210915E+01 -1.153805287E+02 -5.181871915E+02  5.654408358E+02  1.720000000E+02  0.00000E+00  9.000E+00
      -6     2     1     2     0   512  1.003168484E+02  1.134818642E+02 -4.101119602E+02  4.698057295E+02  1.720000000E+02  0.00000E+00  9.000E+00
      24     2     3     3     0     0 -3.732515771E+01 -1.336904160E+02 -3.029188360E+02  3.427400948E+02  8.027861891E+01  0.00000E+00  9.000E+00
     -24     2     4     4     0     0 -3.782853643E+00  6.835959251E+01 -2.576689764E+02  2.797157688E+02  8.461835515E+01  0.00000E+00  9.000E+00
     -11     1     5     5     0     0 -5.416824466E+01 -1.033715776E+02 -2.731375462E+02  2.970252530E+02  5.394796609E-06  0.00000E+00  9.000E+00
      12     1     5     5     0     0  1.684308695E+01 -3.031883837E+01 -2.978128986E+01  4.571484183E+01  1.118282261E-06  0.00000E+00  9.000E+00
      13     1     6     6     0     0 -2.985128715E+00 -2.013160624E+01 -4.796360770E+01  5.210278521E+01  6.743495762E-07  0.00000E+00  9.000E+00
     -14     1     6     6     0     0 -7.977249277E-01  8.849119875E+01 -2.097053687E+02  2.276129836E+02  2.697398305E-06  0.00000E+00  9.000E+00
       5     1     3     3   502     0 -5.382695143E+01  1.830988734E+01 -2.152683555E+02  2.227007410E+02  4.750000000E+00  0.00000E+00  9.000E+00
      -5     1     4     4     0   512  1.040997020E+02  4.512227170E+01 -1.524429838E+02  1.900899607E+02  4.750000000E+00  0.00000E+00  9.000E+00
      21     1     1     2   512   513 -9.164739214E+00  1.898664462E+00 -2.311451108E+00  9.640548626E+00  1.604904177E-07  0.00000E+00  9.000E+00
</event>
<event>
     13  10001  1.00000E+00  2.12718E+01 -1.00000E+00  1.68483E-01
      21    -1     0     0   503   511  0.000000000E+00  0.000000000E+00  2.381895559E+02  2.381895559E+02  0.000000000E+00  0.00000E+00  9.000E+00
      21    -1     0     0   502   503  0.000000000E+00  0.000000000E+00 -2.413972831E+02  2.413972831E+02  0.000000000E+00  0.00000E+00  9.000E+00
       6     2     1     2   502     0 -1.736507896E+01  8.969360364E+01 -1.276157109E+02  2.328438493E+02  1.720000000E+02  0.00000E+00  9.000E+00
      -6     2     1     2     0   504  2.255957786E-01 -7.709485743E+01  1.237110933E+02  2.254597581E+02  1.720000000E+02  0.00000E+00  9.000E+00
      24     2     3     3     0     0 -1.815612088E+01 -1.975181204E+01 -5.462639760E+01  1.012044665E+02  8.086112735E+01  0.00000E+00  9.000E+00
     -24     2     4     4     0     0 -3.420332730E+01 -1.065915824E+02  6.717092518E+01  1.528322107E+02  7.946142715E+01  0.00000E+00  9.000E+00
     -11     1     5     5     0     0 -1.721674830E+01 -1.872691079E+01  1.633364564E+01  3.023080531E+01  1.066240300E-06  0.00000E+00  9.000E+00
      12     1     5     5     0     0 -9.393725773E-01 -1.024901247E+00 -7.096004324E+01  7.097366117E+01  1.348699152E-06  0.00000E+00  9.000E+00
      13     1     6     6     0     0 -2.444170485E+01 -2.185051701E+01  5.853996051E+01  6.709522342E+01  6.743495762E-07  0.00000E+00  9.000E+00
     -14     1     6     6     0     0 -9.761622452E+00 -8.474106543E+01  8.630964667E+00  8.573698731E+01  1.973264856E-06  0.00000E+00  9.000E+00
       5     1     3     3   502     0  7.910419183E-01  1.094454157E+02 -7.298931326E+01  1.316393828E+02  4.750000000E+00  0.00000E+00  9.000E+00
      -5     1     4     4     0   504  3.442892308E+01  2.949672500E+01  5.654016812E+01  7.262754740E+01  4.750000000E+00  0.00000E+00  9.000E+00
      21     1     1     2   504   511  1.713948318E+01 -1.259874621E+01  6.968903973E-01  2.128323157E+01  3.084576360E-07  0.00000E+00  9.000E+00
</event>
<event>
     13  10001  1.00000E+00  1.75052E+01 -1.00000E+00  1.75981E-01
      21    -1     0     0   503   512  0.000000000E+00  0.000000000E+00  2.783536882E+02  2.783536882E+02  0.000000000E+00  0.00000E+00  9.000E+00
      21    -1     0     0   502   503  0.000000000E+00  0.000000000E+00 -1.979570514E+02  1.979570514E+02  0.000000000E+00  0.00000E+00  9.000E+00
       6     2     1     2   502     0  3.092924136E+01 -1.227714019E+02 -4.296240362E+01  2.178513328E+02  1.720000000E+02  0.00000E+00  9.000E+00
      -6     2     1     2     0   504 -4.410728566E+01  1.112488227E+02  1.119973036E+02  2.375902970E+02  1.720000000E+02  0.00000E+00  9.000E+00
      24     2     3     3     0     0 -1.680639054E+01 -9.627202629E+00  1.094579790E+01  8.365387731E+01  8.064132256E+01  0.00000E+00  9.000E+00
     -24     2     4     4     0     0 -4.407165298E+01  3.478655397E+01  1.276832814E+02  1.593912419E+02  7.713710337E+01  0.00000E+00  9.000E+00
     -11     1     5     5     0     0  1.848807668E+01  2.653323704E+01  2.651232838E+00  3.244766067E+01  8.007901217E-07  0.00000E+00  9.000E+00
      12     1     5     5     0     0 -3.529446722E+01 -3.616043967E+01  8.294565064E+00  5.120621664E+01  6.529361695E-07  0.00000E+00  9.000E+00
      13     1     6     6     0     0 -6.251550917E+01  1.384143761E+01  6.742199267E+01  9.298117754E+01  9.536743164E-07  0.00000E+00  9.000E+00
     -14     1     6     6     0     0  1.844385619E+01  2.094511636E+01  6.026128877E+01  6.641006440E+01  1.507891493E-06  0.00000E+00  9.000E+00
       5     1     3     3   502     0  4.773563190E+01 -1.131441993E+02 -5.390820152E+01  1.341974555E+02  4.750000000E+00  0.00000E+00  9.000E+00
      -5     1     4     4     0   504 -3.563267684E-02  7.646226875E+01 -1.568597779E+01  7.819905505E+01  4.750000000E+00  0.00000E+00  9.000E+00
      21     1     1     2   504   512  1.317804430E+01  1.152257917E+01  1.136173670E+01  2.086910978E+01  2.384185791E-07  0.00000E+00  9.000E+00
</event>
<event>
     13  10001  1.00000E+00  1.93939E+01 -1.00000E+00  1.71955E-01
      21    -1     0     0   511   504  0.000000000E+00  0.000000000E+00  6.232253045E+02  6.232253045E+02  0.000000000E+00  0.00000E+00  9.000E+00
      21    -1     0     0   502   503  0.000000000E+00  0.000000000E+00 -2.525194898E+02  2.525194898E+02  0.000000000E+00  0.00000E+00  9.000E+00
       6     2     1     2   502     0  1.413563415E+01 -1.039814384E+01  1.213590010E+02  2.112343359E+02  1.720000000E+02  0.00000E+00  9.000E+00
      -6     2     1     2     0   504 -3.320462555E+01  1.393316264E+01 -1.701266211E+02  2.445889355E+02  1.720000000E+02  0.00000E+00  9.000E+00
      24     2     3     3     0     0  1.475213578E+00 -6.289042250E+01  4.068371681E+01  1.140397396E+02  8.597974124E+01  0.00000E+00  9.000E+00
     -24     2     4     4     0     0 -6.753157999E+01  2.152823619E+01 -4.784009861E+01  1.172603016E+02  8.023293613E+01  0.00000E+00  9.000E+00
     -11     1     5     5     0     0  3.849919738E+01 -2.564525276E+01 -2.093335062E+00  4.630603891E+01  1.244581522E-06  0.00000E+00  9.000E+00
      12     1     5     5     0     0 -3.702398380E+01 -3.724516974E+01  4.277705187E+01  6.773370072E+01  1.507891493E-06  0.00000E+00  9.000E+00
      13     1     6     6     0     0  1.449688552E+01  1.550084007E+01  1.619280651E+00  2.128515451E+01  5.017953587E-07  0.00000E+00  9.000E+00
     -14     1     6     6     0     0 -8.202846551E+01  6.027396122E+00 -4.945937926E+01  9.597514707E+01  9.536743164E-07  0.00000E+00  9.000E+00
       5     1     3     3   502     0  1.266042057E+01  5.249227867E+01  8.067528420E+01  9.719459630E+01  4.750000000E+00  0.00000E+00  9.000E+00
      -5     1     4     4     0   504  3.432695444E+01 -7.595073549E+00 -1.222865225E+02  1.273286340E+02  4.750000000E+00  0.00000E+00  9.000E+00
      21     1     1     2   511   503  1.906899140E+01 -3.535018802E+00  4.194734348E+02  4.199215228E+02  5.394796609E-06  0.00000E+00  9.000E+00
</event>
<event>
     13  10001  1.00000E+00  4.31690E+00 -1.00000E+00  2.66889E-01
      -2    -1     0     0     0   512  0.000000000E+00  0.000000000E+00  6.771034850E+01  6.771034850E+01  0.000000000E+00  0.00000E+00  9.000E+00
       2    -1     0     0   513     0  0.000000000E+00  0.000000000E+00 -1.126976964E+03  1.126976964E+03  0.000000000E+00  0.00000E+00  9.000E+00
       6     2     1     2   502     0 -1.141952088E+02  2.161374459E+01 -2.546578528E+02  3.285457680E+02  1.720000000E+02  0.00000E+00  9.000E+00
      -6     2     1     2     0   512  1.104157168E+02 -1.952782087E+01 -3.119053450E+02  3.734192156E+02  1.720000000E+02  0.00000E+00  9.000E+00
      24     2     3     3     0     0 -8.723444938E+01 -4.019198530E+01 -2.243480758E+02  2.544642192E+02  7.207450911E+01  0.00000E+00  9.000E+00
     -24     2     4     4     0     0  5.394748747E+01  1.113091801E+01 -6.294007422E+01  1.162521731E+02  8.073961888E+01  0.00000E+00  9.000E+00
     -11     1     5     5     0     0 -5.543327935E-01 -3.109774974E+01 -8.014897795E+01  8.597229781E+01  1.907348633E-06  0.00000E+00  9.000E+00
      12     1     5     5     0     0 -8.668011659E+01 -9.094235558E+00 -1.441990979E+02  1.684919214E+02  1.907348633E-06  0.00000E+00  9.000E+00
      13     1     6     6     0     0  2.155025443E+01 -3.299166360E+01 -4.213971897E+01  5.769418730E+01  1.261592536E-06  0.00000E+00  9.000E+00
     -14     1     6     6     0     0  3.239723303E+01  4.412258162E+01 -2.080035525E+01  5.855798575E+01  6.307962682E-07  0.00000E+00  9.000E+00
       5     1     3     3   502     0 -2.696075940E+01  6.180572989E+01 -3.030977695E+01  7.408154880E+01  4.750000000E+00  0.00000E+00  9.000E+00
      -5     1     4     4     0   512  5.646822938E+01 -3.065873889E+01 -2.489652708E+02  2.571670425E+02  4.750000000E+00  0.00000E+00  9.000E+00
      21     1     1     2   513   502  3.779491934E+00 -2.085923714E+00 -4.927034175E+02  4.927223288E+02  0.000000000E+00  0.00000E+00  9.000E+00
</event>
<event>
     13  10001  1.00000E+00  6.95765E+00 -1.00000E+00  2.23587E-01
      21    -1     0     0   502   503  0.000000000E+00  0.000000000E+00  9.467405588E+02  9.467405588E+02  0.000000000E+00  0.00000E+00  9.000E+00
      21    -1     0     0   511   504  0.000000000E+00  0.000000000E+00 -1.239994781E+02  1.239994781E+02  0.000000000E+00  0.00000E+00  9.000E+00
       6     2     1     2   502     0  1.020944326E+02  1.460040861E+02  5.894259037E+02  6.393335297E+02  1.720000000E+02  0.00000E+00  9.000E+00
      -6     2     1     2     0   504 -9.713797395E+01 -1.508869535E+02  2.856226708E+02  3.786383086E+02  1.720000000E+02  0.00000E+00  9.000E+00
      24     2     3     3     0     0 -6.278628072E+00  2.791580360E+01  2.385628521E+02  2.535654567E+02  8.102155980E+01  0.00000E+00  9.000E+00
     -24     2     4     4     0     0 -1.275574721E+02 -8.042466077E+01  1.781257357E+02  2.464701048E+02  7.924455883E+01  0.00000E+00  9.000E+00
     -11     1     5     5     0     0 -3.028581743E+01  4.634126410E+01  1.438319124E+02  1.541180149E+02  1.907348633E-06  0.00000E+00  9.000E+00
      12     1     5     5     0     0  2.400718936E+01 -1.842546050E+01  9.473093975E+01  9.944744180E+01  1.348699152E-06  0.00000E+00  9.000E+00
      13     1     6     6     0     0 -6.654313369E+01 -8.471490117E+01  1.286796891E+02  1.678185494E+02  1.907348633E-06  0.00000E+00  9.000E+00
     -14     1     6     6     0     0 -6.101433836E+01  4.290240400E+00  4.944604659E+01  7.865155543E+01  6.743495762E-07  0.00000E+00  9.000E+00
       5     1     3     3   502     0  1.083730606E+02  1.180882825E+02  3.508630516E+02  3.857680730E+02  4.750000000E+00  0.00000E+00  9.000E+00
      -5     1     4     4     0   504  3.041949810E+01 -7.046229272E+01  1.074969350E+02  1.321682038E+02  4.750000000E+00  0.00000E+00  9.000E+00
      21     1     1     2   511   503 -4.956458628E+00  4.882867429E+00 -5.230749369E+01  5.276819850E+01  1.784161275E-06  0.00000E+00  9.000E+00
</event>
<event>
     13  10001  1.00000E+00  2.83453E+02 -1.00000E+00  1.08146E-01
       1    -1     0     0   502     0  0.000000000E+00  0.000000000E+00  1.447229623E+03  1.447229623E+03  0.000000000E+00  0.00000E+00  9.000E+00
      21    -1     0     0   503   504  0.000000000E+00  0.000000000E+00 -1.220008465E+02  1.220008465E+02  0.000000000E+00  0.00000E+00  9.000E+00
       6     2     1     2   502     0  1.197939932E+02 -1.206970179E+02  2.846407745E+02  3.735274306E+02  1.720000000E+02  0.00000E+00  9.000E+00
      -6     2     1     2     0   504  1.283077997E+02 -1.638287486E+01  1.532693651E+02  2.642097431E+02  1.720000000E+02  0.00000E+00  9.000E+00
      24     2     3     3     0     0 -9.066974462E+00 -4.677548773E+01  1.128550332E+02  1.463657151E+02  8.010310700E+01  0.00000E+00  9.000E+00
     -24     2     4     4     0     0  9.202089980E+01 -3.876877704E+01  1.653209726E+02  2.196488694E+02  1.046123213E+02  0.00000E+00  9.000E+00
     -11     1     5     5     0     0  2.956140250E+01 -1.083305803E+01  1.430842345E+01  3.458269287E+01  5.057621821E-07  0.00000E+00  9.000E+00
      12     1     5     5     0     0 -3.862837697E+01 -3.594242970E+01  9.854660974E+01  1.117830222E+02  0.000000000E+00  0.00000E+00  9.000E+00
      13     1     6     6     0     0  6.980630934E+01  2.415447760E+01  1.123165384E+02  1.344297750E+02  1.348699152E-06  0.00000E+00  9.000E+00
     -14     1     6     6     0     0  2.221459047E+01 -6.292325464E+01  5.300443420E+01  8.521909439E+01  9.536743164E-07  0.00000E+00  9.000E+00
       5     1     3     3   502     0  1.288609677E+02 -7.392153021E+01  1.717857413E+02  2.271617156E+02  4.750000000E+00  0.00000E+00  9.000E+00
      -5     1     4     4     0   504  3.628689994E+01  2.238590218E+01 -1.205160745E+01  4.456087371E+01  4.750000000E+00  0.00000E+00  9.000E+00
       1     1     1     2   503     0 -2.481017929E+02  1.370798928E+02  8.873186374E+02  9.314932962E+02  1.078959322E-05  0.00000E+00  9.000E+00
</event>
<event>
     13  10001  1.00000E+00  7.02429E+01 -1.00000E+00  1.33834E-01
      21    -1     0     0   503   504  0.000000000E+00  0.000000000E+00  3.681109789E+02  3.681109789E+02  0.000000000E+00  0.00000E+00  9.000E+00
       2    -1     0     0   502     0  0.000000000E+00  0.000000000E+00 -2.686231820E+02  2.686231820E+02  0.000000000E+00  0.00000E+00  9.000E+00
       6     2     1     2   502     0 -1.156511120E+01 -1.924246359E+02  1.741823778E+02  3.115838459E+02  1.720000000E+02  0.00000E+00  9.000E+00
      -6     2     1     2     0   504 -2.357754643E+01  1.316047179E+02  6.294641377E+00  2.179433985E+02  1.720000000E+02  0.00000E+00  9.000E+00
      24     2     3     3     0     0 -1.087400433E+01 -1.512921875E+02  1.981305465E+02  2.637462747E+02  8.543309664E+01  0.00000E+00  9.000E+00
     -24     2     4     4     0     0 -1.292772106E+01  1.072247812E+02 -5.942350182E+01  1.468854156E+02  7.987423290E+01  0.00000E+00  9.000E+00
     -11     1     5     5     0     0  1.843832071E+00  1.068176887E+01  1.926841144E+01  2.210817908E+01  1.702649219E-06  0.00000E+00  9.000E+00
      12     1     5     5     0     0 -1.271783640E+01 -1.619739564E+02  1.788621350E+02  2.416380956E+02  4.672030912E-06  0.00000E+00  9.000E+00
      13     1     6     6     0     0  2.953213674E+01  3.727665561E+01 -3.320882678E+00  4.767309950E+01  1.206902071E-06  0.00000E+00  9.000E+00
     -14     1     6     6     0     0 -4.245985780E+01  6.994812557E+01 -5.610261914E+01  9.921231612E+01  2.697398305E-06  0.00000E+00  9.000E+00
       5     1     3     3   502     0 -6.911068687E-01 -4.113244835E+01 -2.394816865E+01  4.783757120E+01  4.750000000E+00  0.00000E+00  9.000E+00
      -5     1     4     4     0   504 -1.064982537E+01  2.437993667E+01  6.571814319E+01  7.105798293E+01  4.750000000E+00  0.00000E+00  9.000E+00
       2     1     1     2   503     0  3.514265763E+01  6.081991801E+01 -8.098922229E+01  1.072069165E+02  1.651812370E-06  0.00000E+00  9.000E+00
</event>
<event>
     13  10001  1.00000E+00  1.37543E+01 -1.00000E+00  1.86275E-01
      21    -1     0     0   503   504  0.000000000E+00  0.000000000E+00  1.028514908E+02  1.028514908E+02  0.000000000E+00  0.00000E+00  9.000E+00
      21    -1     0     0   511   503  0.000000000E+00  0.000000000E+00 -5.412254907E+02  5.412254907E+02  0.000000000E+00  0.00000E+00  9.000E+00
       6     2     1     2   502     0 -1.012966674E+02 -4.690627865E+00 -1.120083999E+02  2.289386347E+02  1.720000000E+02  0.00000E+00  9.000E+00
      -6     2     1     2     0   504  1.128783746E+02 -2.728585066E+00 -1.963760486E+02  2.844231444E+02  1.720000000E+02  0.00000E+00  9.000E+00
      24     2     3     3     0     0 -1.237285898E+01  4.888070880E+01 -5.860345574E+01  1.120969368E+02  8.117232830E+01  0.00000E+00  9.000E+00
     -24     2     4     4     0     0  7.552188322E+01  3.681934573E+01 -1.977887884E+02  2.297961858E+02  8.140431867E+01  0.00000E+00  9.000E+00
     -11     1     5     5     0     0 -1.030370803E+01 -1.598628539E+00  1.772407713E+01  2.056367969E+01  6.743495762E-07  0.00000E+00  9.000E+00
      12     1     5     5     0     0 -2.069150957E+00  5.047933734E+01 -7.632753286E+01  9.153325711E+01  1.651812370E-06  0.00000E+00  9.000E+00
      13     1     6     6     0     0  2.449413785E+01 -1.501462692E+01 -1.364097977E+01  3.180374411E+01  4.129530925E-07  0.00000E+00  9.000E+00
     -14     1     6     6     0     0  5.102774537E+01  5.183397264E+01 -1.841478087E+02  1.979924416E+02  3.814697266E-06  0.00000E+00  9.000E+00
       5     1     3     3   502     0 -8.892380837E+01 -5.357133666E+01 -5.340494414E+01  1.168416979E+02  4.750000000E+00  0.00000E+00  9.000E+00
      -5     1     4     4     0   504  3.735649137E+01 -3.954793079E+01  1.412739864E+00  5.462695865E+01  4.750000000E+00  0.00000E+00  9.000E+00
      21     1     1     2   511   502 -1.158170723E+01  7.419212930E+00 -1.299895514E+02  1.307152024E+02  2.697398305E-06  0.00000E+00  9.000E+00
</event>
<event>
     13  10001  1.00000E+00  1.92055E+02 -1.00000E+00  1.14245E-01
      21    -1     0     0   502   503  0.000000000E+00  0.000000000E+00  5.806107841E+02  5.806107841E+02  0.000000000E+00  0.00000E+00  9.000E+00
       1    -1     0     0   503     0  0.000000000E+00  0.000000000E+00 -7.448209627E+02  7.448209627E+02  0.000000000E+00  0.00000E+00  9.000E+00
       6     2     1     2   502     0 -7.371002702E+00 -2.545383617E+02 -4.505446004E+02  5.453609321E+02  1.720000000E+02  0.00000E+00  9.000E+00
      -6     2     1     2     0   504 -1.845319062E+02  2.621738461E+02  4.126980540E+02  5.501734579E+02  1.720000000E+02  0.00000E+00  9.000E+00
      24     2     3     3     0     0 -3.085598986E+01 -1.404734013E+02 -1.500024009E+02  2.230093600E+02  8.091715385E+01  0.00000E+00  9.000E+00
     -24     2     4     4     0     0 -1.626515838E+01  1.032438774E+02  1.249644627E+02  1.808692263E+02  7.857293745E+01  0.00000E+00  9.000E+00
     -11     1     5     5     0     0 -4.751973012E+01 -3.957172686E+01 -4.535791450E+01  7.669019967E+01  9.536743164E-07  0.00000E+00  9.000E+00
      12     1     5     5     0     0  1.666374026E+01 -1.009016745E+02 -1.046444864E+02  1.463191603E+02  3.303624740E-06  0.00000E+00  9.000E+00
      13     1     6     6     0     0 -4.457934508E+01  6.290424128E+01  5.266477913E+01  9.336937688E+01  6.743495762E-07  0.00000E+00  9.000E+00
     -14     1     6     6     0     0  2.831418670E+01  4.033963609E+01  7.229968352E+01  8.749984940E+01  1.348699152E-06  0.00000E+00  9.000E+00
       5     1     3     3   502     0  2.348498715E+01 -1.140649604E+02 -3.005421996E+02  3.223515721E+02  4.750000000E+00  0.00000E+00  9.000E+00
      -5     1     4     4     0   504 -1.682667479E+02  1.589299687E+02  2.877335914E+02  3.693042316E+02  4.750000000E+00  0.00000E+00  9.000E+00
       1     1     1     2   504     0  1.919029089E+02 -7.635484357E+00 -1.263636322E+02  2.298973567E+02  1.348699152E-06  0.00000E+00  9.000E+00
</event>
<event>
     13  10001  1.00000E+00  1.02652E+02 -1.00000E+00  1.25687E-01
      21    -1     0     0   502   503  0.000000000E+00  0.000000000E+00  2.615925345E+02  2.615925345E+02  0.000000000E+00  0.00000E+00  9.000E+00
      21    -1     0     0   511   504  0.000000000E+00  0.000000000E+00 -4.039828254E+02  4.039828254E+02  0.000000000E+00  0.00000E+00  9.000E+00
       6     2     1     2   502     0  1.799387601E+01  9.691048224E+01 -5.380085488E+01  2.054116675E+02  1.720000000E+02  0.00000E+00  9.000E+00
      -6     2     1     2     0   504  8.405828289E+01 -1.079870850E+02  1.030557181E+02  2.427580822E+02  1.720000000E+02  0.00000E+00  9.000E+00
      24     2     3     3     0     0 -4.144969727E+01  9.193468526E+01 -6.246340597E+01  1.449476348E+02  8.329511377E+01  0.00000E+00  9.000E+00
     -24     2     4     4     0     0  5.948825260E+01 -5.702547259E+01  1.354870205E+02  1.773736483E+02  7.946018905E+01  0.00000E+00  9.000E+00
     -11     1     5     5     0     0 -3.089238919E+01  1.046555129E+02 -3.825039732E+01  1.156296199E+02  2.821006671E-06  0.00000E+00  9.000E+00
      12     1     5     5     0     0 -1.055730808E+01 -1.272082765E+01 -2.421300865E+01  2.931801490E+01  8.259061849E-07  0.00000E+00  9.000E+00
      13     1     6     6     0     0  7.534119386E+01 -6.176345084E+01  1.212977172E+02  1.555768477E+02  1.907348633E-06  0.00000E+00  9.000E+00
     -14     1     6     6     0     0 -1.585294126E+01  4.737978246E+00  1.418930335E+01  2.179680055E+01  1.685873940E-07  0.00000E+00  9.000E+00
       5     1     3     3   502     0  5.944357327E+01  4.975796976E+00  8.662551090E+00  6.046403270E+01  4.750000000E+00  0.00000E+00  9.000E+00
      -5     1     4     4     0   504  2.457003029E+01 -5.096161237E+01 -3.243130243E+01  6.538443394E+01  4.750000000E+00  0.00000E+00  9.000E+00
      21     1     1     2   511   503 -1.020521589E+02  1.107660272E+01 -1.916451541E+02  2.174056103E+02  2.697398305E-06  0.00000E+00  9.000E+00
</event>
<event>
     13  10001  1.00000E+00  1.01340E+02 -1.00000E+00  1.25946E-01
      21    -1     0     0   503   504  0.000000000E+00  0.000000000E+00  3.862571017E+02  3.862571017E+02  0.000000000E+00  0.00000E+00  9.000E+00
       2    -1     0     0   502     0  0.000000000E+00  0.000000000E+00 -2.527574059E+02  2.527574059E+02  0.000000000E+00  0.00000E+00  9.000E+00
       6     2     1     2   502     0  6.364211801E+01  1.090881636E+02  2.416281504E+02  3.223642500E+02  1.720000000E+02  0.00000E+00  9.000E+00
      -6     2     1     2     0   504  1.043644391E+01 -3.993451222E+01 -1.251725759E+01  1.773255942E+02  1.720000000E+02  0.00000E+00  9.000E+00
      24     2     3     3     0     0 -1.744858899E+01  9.591578714E+01  1.153477662E+02  1.716376359E+02  8.154801910E+01  0.00000E+00  9.000E+00
     -24     2     4     4     0     0 -3.843488595E+01 -9.576597458E+00  5.898458509E+01  8.542844585E+01  4.743296749E+01  0.00000E+00  9.000E+00
     -11     1     5     5     0     0 -4.177150196E-02 -1.474187301E+01  9.616194404E+00  1.760101587E+01  7.444617746E-07  0.00000E+00  9.000E+00
      12     1     5     5     0     0 -1.740681749E+01  1.106576602E+02  1.057315718E+02  1.540366201E+02  0.000000000E+00  0.00000E+00  9.000E+00
      13     1     6     6     0     0 -1.559627347E+01 -2.796955532E+01  3.590395202E+01  4.811063855E+01  1.348699152E-06  0.00000E+00  9.000E+00
     -14     1     6     6     0     0 -2.283861248E+01  1.839295786E+01  2.308063307E+01  3.731780730E+01  8.920806376E-07  0.00000E+00  9.000E+00
       5     1     3     3   502     0  8.109070700E+01  1.317237648E+01  1.262803842E+02  1.507266141E+02  4.750000000E+00  0.00000E+00  9.000E+00
      -5     1     4     4     0   504  4.887132986E+01 -3.035791477E+01 -7.150184268E+01  9.189714837E+01  4.750000000E+00  0.00000E+00  9.000E+00
       2     1     1     2   503     0 -7.407856192E+01 -6.915365139E+01 -9.561119699E+01  1.393246634E+02  1.907348633E-06  0.00000E+00  9.000E+00
</event>
<event>
     13  10001  1.00000E+00  1.22310E+02 -1.00000E+00  1.22257E-01
       2    -1     0     0   502     0  0.000000000E+00  0.000000000E+00  1.345631766E+03  1.345631766E+03  0.000000000E+00  0.00000E+00  9.000E+00
      21    -1     0     0   503   504  0.000000000E+00  0.000000000E+00 -1.156925368E+02  1.156925368E+02  0.000000000E+00  0.00000E+00  9.000E+00
       6     2     1     2   502     0 -9.288256836E+01 -1.499351663E+01  2.954239457E+01  1.982642936E+02  1.720000000E+02  0.00000E+00  9.000E+00
      -6     2     1     2     0   504 -2.457276918E+01 -1.912365044E+01  2.512912429E+02  3.061059028E+02  1.720000000E+02  0.00000E+00  9.000E+00
      24     2     3     3     0     0 -8.229820765E+01 -5.893022272E+01 -1.933843065E+01  1.315232987E+02  8.172292861E+01  0.00000E+00  9.000E+00
     -24     2     4     4     0     0  2.893681705E+01 -5.140656993E+01  9.786595030E+01  1.403731492E+02  8.152853478E+01  0.00000E+00  9.000E+00
     -11     1     5     5     0     0 -4.210907314E+01 -2.325282037E+01  3.153844496E+01  5.751992009E+01  1.215700987E-06  0.00000E+00  9.000E+00
      12     1     5     5     0     0 -4.018913450E+01 -3.567740235E+01 -5.087687560E+01  7.400337858E+01  2.431401974E-06  0.00000E+00  9.000E+00
      13     1     6     6     0     0  9.186562065E+00 -5.200761377E+01  1.064490666E+02  1.188300828E+02  2.336015456E-06  0.00000E+00  9.000E+00
     -14     1     6     6     0     0  1.975025498E+01  6.010438371E-01 -8.583116254E+00  2.154306641E+01  7.251217997E-07  0.00000E+00  9.000E+00
       5     1     3     3   502     0 -1.058436071E+01  4.393670608E+01  4.888082521E+01  6.674099495E+01  4.750000000E+00  0.00000E+00  9.000E+00
      -5     1     4     4     0   504 -5.350958623E+01  3.228291950E+01  1.534252926E+02  1.657327536E+02  4.750000000E+00  0.00000E+00  9.000E+00
       2     1     1     2   503     0  1.174553375E+02  3.411716707E+01  9.491055915E+02  9.569541061E+02  1.078959322E-05  0.00000E+00  9.000E+00
</event>
<event>
     13  10001  1.00000E+00  4.01044E+01 -1.00000E+00  1.48072E-01
      21    -1     0     0   502   511  0.000000000E+00  0.000000000E+00  2.067148490E+02  2.067148490E+02  0.000000000E+00  0.00000E+00  9.000E+00
      21    -1     0     0   503   504  0.000000000E+00  0.000000000E+00 -2.480338134E+02  2.480338134E+02  0.000000000E+00  0.00000E+00  9.000E+00
       6     2     1     2   502     0  2.199215966E+01  1.973961190E+00 -1.027757302E+02  2.015797667E+02  1.720000000E+02  0.00000E+00  9.000E+00
      -6     2     1     2     0   504 -5.030471793E+01  2.642965812E+01  1.638926697E+00  1.811512560E+02  1.720000000E+02  0.00000E+00  9.000E+00
      24     2     3     3     0     0  3.350229013E+01 -4.022886520E+01 -7.767305056E+00  9.687673421E+01  8.114188538E+01  0.00000E+00  9.000E+00
     -24     2     4     4     0     0  3.604594157E+01  4.890808209E+01  3.990059390E+01  8.394923125E+01  4.200125757E+01  0.00000E+00  9.000E+00
     -11     1     5     5     0     0  1.509204074E+01 -2.299832902E+01  3.663575213E+01  4.581343870E+01  6.743495762E-07  0.00000E+00  9.000E+00
      12     1     5     5     0     0  1.841024940E+01 -1.723053618E+01 -4.440305719E+01  5.106329550E+01  0.000000000E+00  0.00000E+00  9.000E+00
      13     1     6     6     0     0 -5.397930941E+00  2.583549361E+01  1.305110852E+01  2.944387580E+01  3.769728732E-07  0.00000E+00  9.000E+00
     -14     1     6     6     0     0  4.144387251E+01  2.307258848E+01  2.684948538E+01  5.450535545E+01  1.011524364E-06  0.00000E+00  9.000E+00
       5     1     3     3   502     0 -1.151013047E+01  4.220282639E+01 -9.500842512E+01  1.047030324E+02  4.750000000E+00  0.00000E+00  9.000E+00
      -5     1     4     4     0   504 -8.635065950E+01 -2.247842396E+01 -3.826166720E+01  9.720202476E+01  4.750000000E+00  0.00000E+00  9.000E+00
      21     1     1     2   503   511  2.831255827E+01 -2.840361931E+01  5.981783909E+01  7.201763964E+01  6.743495762E-07  0.00000E+00  9.000E+00
</event>
<event>
     13  10001  1.00000E+00  1.22711E+02 -1.00000E+00  1.22194E-01
      21    -1     0     0   502   512  0.000000000E+00  0.000000000E+00  6.864710948E+02  6.864710948E+02  0.000000000E+00  0.00000E+00  9.000E+00
      21    -1     0     0   503   504  0.000000000E+00  0.000000000E+00 -1.774864994E+02  1.774864994E+02  0.000000000E+00  0.00000E+00  9.000E+00
       6     2     1     2   502     0 -3.675238678E+01 -1.972868689E+02  2.466115214E+01  2.654524797E+02  1.720000000E+02  0.00000E+00  9.000E+00
      -6     2     1     2     0   504 -6.766438539E+01  1.328268091E+02  2.895536372E+02  3.683025102E+02  1.720000000E+02  0.00000E+00  9.000E+00
      24     2     3     3     0     0  8.310428250E+00 -5.954363729E+01 -3.880986251E+01  1.071648070E+02  7.977206569E+01  0.00000E+00  9.000E+00
     -24     2     4     4     0     0 -7.413527114E+01  3.972670438E+01  8.050486638E+01  1.393189892E+02  7.651468987E+01  0.00000E+00  9.000E+00
     -11     1     5     5     0     0 -2.072566492E+01 -4.080904285E+01 -5.280699175E+01  6.988211175E+01  2.132480600E-06  0.00000E+00  9.000E+00
      12     1     5     5     0     0  2.903609317E+01 -1.873459444E+01  1.399712924E+01  3.728269522E+01  5.057621821E-07  0.00000E+00  9.000E+00
      13     1     6     6     0     0 -1.939781030E+01 -1.244047403E+01 -6.601418252E+00  2.397121527E+01  8.800520337E-07  0.00000E+00  9.000E+00
     -14     1     6     6     0     0 -5.473746084E+01  5.216717841E+01  8.710628463E+01  1.153477739E+02  2.132480600E-06  0.00000E+00  9.000E+00
       5     1     3     3   502     0 -4.506281503E+01 -1.377432316E+02  6.347101465E+01  1.582876727E+02  4.750000000E+00  0.00000E+00  9.000E+00
      -5     1     4     4     0   504  6.470885753E+00  9.310010469E+01  2.090487708E+02  2.289835211E+02  4.750000000E+00  0.00000E+00  9.000E+00
      21     1     1     2   503   512  1.044167722E+02  6.446005978E+01  1.947698061E+02  2.302026042E+02  2.697398305E-06  0.00000E+00  9.000E+00
</event>
<event>
     13  10001  1.00000E+00  2.27473E+02 -1.00000E+00  1.11509E-01
       2    -1     0     0   502     0  0.000000000E+00  0.000000000E+00  6.013190690E+02  6.013190690E+02  0.000000000E+00  0.00000E+00  9.000E+00
      21    -1     0     0   511   512  0.000000000E+00  0.000000000E+00 -2.621318555E+02  2.621318555E+02  0.000000000E+00  0.00000E+00  9.000E+00
       6     2     1     2   502     0  2.134245574E+02  5.664142126E+01 -1.304792498E+01  2.802008934E+02  1.720000000E+02  0.00000E+00  9.000E+00
      -6     2     1     2     0   512 -3.580473813E+01  8.546800114E+01  4.417102874E+01  2.003043641E+02  1.720000000E+02  0.00000E+00  9.000E+00
      24     2     3     3     0     0  9.686074131E+01  8.795515938E+01 -3.560531309E+01  1.573226135E+02  7.977814938E+01  0.00000E+00  9.000E+00
     -24     2     4     4     0     0  6.901640767E+00 -1.451789557E+01  7.985721384E+01  8.577453982E+01  2.686438426E+01  0.00000E+00  9.000E+00
     -11     1     5     5     0     0  4.007505554E+01  2.015432639E+01  2.380315207E+01  5.078185697E+01  8.920806376E-07  0.00000E+00  9.000E+00
      12     1     5     5     0     0  5.678568578E+01  6.780083299E+01 -5.940846516E+01  1.065407565E+02  2.861022949E-06  0.00000E+00  9.000E+00
      13     1     6     6     0     0 -6.709650561E+00  3.491173266E+00  1.131112183E+01  1.360695331E+01  2.384185791E-07  0.00000E+00  9.000E+00
     -14     1     6     6     0     0  1.361129133E+01 -1.800906884E+01  6.854609201E+01  7.216758650E+01  1.907348633E-06  0.00000E+00  9.000E+00
       5     1     3     3   502     0  1.165638161E+02 -3.131373812E+01  2.255738811E+01  1.228782799E+02  4.750000000E+00  0.00000E+00  9.000E+00
      -5     1     4     4     0   512 -4.270637890E+01  9.998589671E+01 -3.568618510E+01  1.145298243E+02  4.750000000E+00  0.00000E+00  9.000E+00
       2     1     1     2   511     0 -1.776198193E+02 -1.421094224E+02  3.080641097E+02  3.829456670E+02  0.000000000E+00  0.00000E+00  9.000E+00
</event>
<event>
     13  10001  1.00000E+00  1.55793E+01 -1.00000E+00  1.80806E-01
      21    -1     0     0   502   503  0.000000000E+00  0.000000000E+00  5.255071233E+02  5.255071233E+02  0.000000000E+00  0.00000E+00  9.000E+00
      21    -1     0     0   503   512  0.000000000E+00  0.000000000E+00 -4.538720868E+02  4.538720868E+02  0.000000000E+00  0.00000E+00  9.000E+00
       6     2     1     2   502     0 -1.435098384E+01  1.477856570E+02  4.649583280E+02  5.175101911E+02  1.720000000E+02  0.00000E+00  9.000E+00
      -6     2     1     2     0   504  2.948980380E+01 -1.441073413E+02 -3.628807466E+02  4.276716154E+02  1.720000000E+02  0.00000E+00  9.000E+00
      24     2     3     3     0     0  1.987278620E+01  7.878009648E+01  4.020001427E+02  4.179143608E+02  8.029362982E+01  0.00000E+00  9.000E+00
     -24     2     4     4     0     0  7.610681706E+01 -1.112712142E+02 -3.178781255E+02  3.548763162E+02  8.195832152E+01  0.00000E+00  9.000E+00
     -11     1     5     5     0     0 -2.554594569E+01  7.304925710E+00  1.421851330E+02  1.446463595E+02  1.907348633E-06  0.00000E+00  9.000E+00
      12     1     5     5     0     0  4.541873189E+01  7.147517077E+01  2.598150097E+02  2.732680013E+02  3.814697266E-06  0.00000E+00  9.000E+00
      13     1     6     6     0     0  3.000771351E+01 -5.935961585E+00 -1.382952565E+02  1.416378357E+02  1.907348633E-06  0.00000E+00  9.000E+00
     -14     1     6     6     0     0  4.609910355E+01 -1.053352526E+02 -1.795828689E+02  2.132384806E+02  4.264961200E-06  0.00000E+00  9.000E+00
       5     1     3     3   502     0 -3.422377004E+01  6.900556057E+01  6.295818522E+01  9.959583029E+01  4.750000000E+00  0.00000E+00  9.000E+00
      -5     1     4     4     0   504 -4.661701325E+01 -3.283612712E+01 -4.500262117E+01  7.279529917E+01  4.750000000E+00  0.00000E+00  9.000E+00
      21     1     1     2   504   512 -1.513881997E+01 -3.678315767E+00 -3.044254486E+01  3.419740362E+01  5.840038640E-07  0.00000E+00  9.000E+00
</event>
<event>
     13  10001  1.00000E+00  6.36541E+01 -1.00000E+00  1.36129E-01
      21    -1     0     0   502   503  0.000000000E+00  0.000000000E+00  5.614160647E+02  5.614160647E+02  0.000000000E+00  0.00000E+00  9.000E+00
      21    -1     0     0   503   511  0.000000000E+00  0.000000000E+00 -1.765047603E+02  1.765047603E+02  0.000000000E+00  0.00000E+00  9.000E+00
       6     2     1     2   502     0  2.258869983E+02 -6.882155268E+01  8.894080914E+01  3.053781421E+02  1.720000000E+02  0.00000E+00  9.000E+00
      -6     2     1     2     0   504 -1.627149573E+02  6.100217745E+01  2.687025256E+02  3.632939172E+02  1.720000000E+02  0.00000E+00  9.000E+00
      24     2     3     3     0     0  3.801542171E+01 -3.518841393E+01  1.193012357E+00  9.526113738E+01  7.993662648E+01  0.00000E+00  9.000E+00
     -24     2     4     4     0     0 -1.306312213E+02  9.935910583E+01  1.580604191E+02  2.417831839E+02  8.086571613E+01  0.00000E+00  9.000E+00
     -11     1     5     5     0     0  3.796976209E+01 -5.916217025E+01  6.842649857E+00  7.063063838E+01  2.147422258E-06  0.00000E+00  9.000E+00
      12     1     5     5     0     0  4.565962407E-02  2.397375632E+01 -5.649637500E+00  2.463049899E+01  2.528810911E-07  0.00000E+00  9.000E+00
      13     1     6     6     0     0 -1.295279984E+01  4.903033608E+01  2.291211625E+01  5.564812621E+01  1.752011592E-06  0.00000E+00  9.000E+00
     -14     1     6     6     0     0 -1.176784214E+02  5.032876976E+01  1.351483029E+02  1.861350577E+02  4.264961200E-06  0.00000E+00  9.000E+00
       5     1     3     3   502     0  1.878715766E+02 -3.363313875E+01  8.774779678E+01  2.101170047E+02  4.750000000E+00  0.00000E+00  9.000E+00
      -5     1     4     4     0   504 -3.208373609E+01 -3.835692838E+01  1.106421065E+02  1.215107333E+02  4.750000000E+00  0.00000E+00  9.000E+00
      21     1     1     2   504   511 -6.317204099E+01  7.819375228E+00  2.726796968E+01  6.924876578E+01  1.118282261E-06  0.00000E+00  9.000E+00
</event>
<event>
     13  10001  1.00000E+00  1.65944E+01 -1.00000E+00  1.78160E-01
      21    -1     0     0   502   503  0.000000000E+00  0.000000000E+00  4.016900781E+02  4.016900781E+02  0.000000000E+00  0.00000E+00  9.000E+00
      21    -1     0     0   503   512  0.000000000E+00  0.000000000E+00 -6.780769627E+02  6.780769627E+02  0.000000000E+00  0.00000E+00  9.000E+00
       6     2     1     2   502     0  4.165167787E+01 -3.031096536E+01 -1.564559935E+02  2.381514115E+02  1.720000000E+02  0.00000E+00  9.000E+00
      -6     2     1     2     0   504 -5.362862502E+01  1.882507637E+01  3.379480026E+02  3.834361294E+02  1.720000000E+02  0.00000E+00  9.000E+00
      24     2     3     3     0     0  5.295760468E+00 -7.006756632E+01 -4.977223306E+01  1.185423512E+02  8.147088391E+01  0.00000E+00  9.000E+00
     -24     2     4     4     0     0 -7.283110526E+01  9.507518177E-01  1.123051958E+02  1.562237498E+02  8.054892407E+01  0.00000E+00  9.000E+00
     -11     1     5     5     0     0  7.117876409E+00  1.806805783E+01 -9.704051302E+00  2.170915682E+01  3.953724850E-07  0.00000E+00  9.000E+00
      12     1     5     5     0     0 -1.822115941E+00 -8.813562415E+01 -4.006818176E+01  9.683319441E+01  9.536743164E-07  0.00000E+00  9.000E+00
      13     1     6     6     0     0 -4.911745132E+01  3.885697705E+01  7.699199966E+01  9.924795566E+01  0.000000000E+00  0.00000E+00  9.000E+00
     -14     1     6     6     0     0 -2.371365393E+01 -3.790622523E+01  3.531319612E+01  5.697579411E+01  9.536743164E-07  0.00000E+00  9.000E+00
       5     1     3     3   502     0  3.635591740E+01  3.975660096E+01 -1.066837605E+02  1.196090603E+02  4.750000000E+00  0.00000E+00  9.000E+00
      -5     1     4     4     0   504  1.920248023E+01  1.787432456E+01  2.256428068E+02  2.272123797E+02  4.750000000E+00  0.00000E+00  9.000E+00
      21     1     1     2   504   512  1.197694715E+01  1.148588899E+01 -4.578788936E+02  4.581794999E+02  5.394796609E-06  0.00000E+00  9.000E+00
</event>
<event>
     13  10001  1.00000E+00  9.60868E+01 -1.00000E+00  1.27032E-01
      21    -1     0     0   502   503  0.000000000E+00  0.000000000E+00  6.344680175E+02  6.344680175E+02  0.000000000E+00  0.00000E+00  9.000E+00
      21    -1     0     0   503   511  0.000000000E+00  0.000000000E+00 -9.532592095E+01  9.532592095E+01  0.000000000E+00  0.00000E+00  9.000E+00
       6     2     1     2   502     0  3.322309004E+01  6.431929044E+01  1.963854739E+02  2.709095775E+02  1.720000000E+02  0.00000E+00  9.000E+00
      -6     2     1     2     0   504 -1.162605608E+02 -1.597204754E+01  2.496783269E+02  3.251075072E+02  1.720000000E+02  0.00000E+00  9.000E+00
      24     2     3     3     0     0 -5.853096190E-01  4.964247008E+01  2.858528669E+01  9.904369298E+01  8.079490752E+01  0.00000E+00  9.000E+00
     -24     2     4     4     0     0 -1.123643889E+02 -6.915300656E+01  1.664939223E+02  2.261853043E+02  7.766383648E+01  0.00000E+00  9.000E+00
     -11     1     5     5     0     0  2.299607498E+01  4.375107787E+01 -1.279243061E+01  5.105509339E+01  6.078504936E-07  0.00000E+00  9.000E+00
      12     1     5     5     0     0 -2.358138460E+01  5.891392204E+00  4.137771730E+01  4.798859959E+01  4.768371582E-07  0.00000E+00  9.000E+00
      13     1     6     6     0     0 -4.640217625E+01 -7.267947357E+01  1.057044056E+02  1.364144025E+02  3.015782986E-06  0.00000E+00  9.000E+00
     -14     1     6     6     0     0 -6.596221268E+01  3.526467010E+00  6.078951667E+01  8.977090179E+01  6.743495762E-07  0.00000E+00  9.000E+00
       5     1     3     3   502     0  3.380839966E+01  1.467682036E+01  1.678001872E+02  1.718658845E+02  4.750000000E+00  0.00000E+00  9.000E+00
      -5     1     4     4     0   504 -3.896171914E+00  5.318095902E+01  8.318440463E+01  9.892220293E+01  4.750000000E+00  0.00000E+00  9.000E+00
      21     1     1     2   504   511  8.303747081E+01 -4.834724290E+01  9.307829576E+01  1.337768537E+02  0.000000000E+00  0.00000E+00  9.000E+00
</event>
<event>
     13  10001  1.00000E+00  3.33620E+01 -1.00000E+00  1.53453E-01
      21    -1     0     0   513   512  0.000000000E+00  0.000000000E+00  5.794653611E+02  5.794653611E+02  0.000000000E+00  0.00000E+00  9.000E+00
       1    -1     0     0   502     0  0.000000000E+00  0.000000000E+00 -1.623580187E+02  1.623580187E+02  0.000000000E+00  0.00000E+00  9.000E+00
       6     2     1     2   502     0  3.240703147E+01 -1.383612576E+02  1.993119361E+02  2.991710233E+02  1.720000000E+02  0.00000E+00  9.000E+00
      -6     2     1     2     0   512 -3.368347479E+01  1.716987803E+02  2.458592719E+01  2.465836885E+02  1.720000000E+02  0.00000E+00  9.000E+00
      24     2     3     3     0     0 -9.114707795E+00 -9.950370203E+01  2.079576220E+02  2.414538262E+02  7.120051283E+01  0.00000E+00  9.000E+00
     -24     2     4     4     0     0 -5.568084900E+01  1.153772820E+02 -3.730279974E+01  1.599305139E+02  8.817026866E+01  0.00000E+00  9.000E+00
     -11     1     5     5     0     0  2.901876007E+01 -6.331705466E+01  1.079143536E+02  1.284392679E+02  1.348699152E-06  0.00000E+00  9.000E+00
      12     1     5     5     0     0 -3.813346786E+01 -3.618664737E+01  1.000432684E+02  1.130145582E+02  1.348699152E-06  0.00000E+00  9.000E+00
      13     1     6     6     0     0 -2.603357046E+01  1.163659864E+02 -1.007869801E+01  1.196677473E+02  1.420542632E-06  0.00000E+00  9.000E+00
     -14     1     6     6     0     0 -2.964727854E+01 -9.887044690E-01 -2.722410173E+01  4.026276663E+01  1.215700987E-06  0.00000E+00  9.000E+00
       5     1     3     3   502     0  4.152173927E+01 -3.885755557E+01 -8.645685854E+00  5.771719710E+01  4.750000000E+00  0.00000E+00  9.000E+00
      -5     1     4     4     0   512  2.199737421E+01  5.632149834E+01  6.188872693E+01  8.665317460E+01  4.750000000E+00  0.00000E+00  9.000E+00
       1     1     1     2   513     0  1.276443317E+00 -3.333752269E+01  1.932094791E+02  1.960686679E+02  0.000000000E+00  0.00000E+00  9.000E+00
</event>
<event>
     13  10001  1.00000E+00  7.00831E+01 -1.00000E+00  1.33886E-01
      21    -1     0     0   502   511  0.000000000E+00  0.000000000E+00  8.463357110E+01  8.463357110E+01  0.000000000E+00  0.00000E+00  9.000E+00
      21    -1     0     0   503   504  0.000000000E+00  0.000000000E+00 -1.103759029E+03  1.103759029E+03  0.000000000E+00  0.00000E+00  9.000E+00
       6     2     1     2   502     0 -4.649000849E+01 -1.542869004E+02 -4.531311519E+02  5.107617931E+02  1.720000000E+02  0.00000E+00  9.000E+00
      -6     2     1     2     0   504  2.423431459E+01  8.783144657E+01 -5.749261265E+02  6.069808201E+02  1.720000000E+02  0.00000E+00  9.000E+00
      24     2     3     3     0     0 -2.374016904E+01 -1.170504482E+02 -1.622231346E+02  2.165609339E+02  7.948515362E+01  0.00000E+00  9.000E+00
     -24     2     4     4     0     0 -3.985019644E+01  9.131606512E+01 -3.873791945E+02  4.086997536E+02  8.394156513E+01  0.00000E+00  9.000E+00
     -11     1     5     5     0     0  1.171862407E+01  2.070439377E+00 -4.196018640E+01  4.361502164E+01  1.168007728E-06  0.00000E+00  9.000E+00
      12     1     5     5     0     0 -3.545879311E+01 -1.191208875E+02 -1.202629482E+02  1.729459123E+02  1.348699152E-06  0.00000E+00  9.000E+00
      13     1     6     6     0     0 -1.533989801E+01 -1.428680511E+01 -8.243243143E+01  8.505604636E+01  2.132480600E-06  0.00000E+00  9.000E+00
     -14     1     6     6     0     0 -2.451029843E+01  1.056028702E+02 -3.049467631E+02  3.236437073E+02  3.814697266E-06  0.00000E+00  9.000E+00
       5     1     3     3   502     0 -2.274983944E+01 -3.723645223E+01 -2.909080172E+02  2.942008592E+02  4.750000000E+00  0.00000E+00  9.000E+00
      -5     1     4     4     0   504  6.408451103E+01 -3.484618553E+00 -1.875469320E+02  1.982810665E+02  4.750000000E+00  0.00000E+00  9.000E+00
      21     1     1     2   503   511  2.225569390E+01  6.645545381E+01  8.931820343E+00  7.064998703E+01  1.940586638E-06  0.00000E+00  9.000E+00
</event>
<event>
     13  10001  1.00000E+00  8.19695E+01 -1.00000E+00  1.30391E-01
      -3    -1     0     0     0   504  0.000000000E+00  0.000000000E+00  1.248404636E+03  1.248404636E+03  0.000000000E+00  0.00000E+00  9.000E+00
      21    -1     0     0   502   503  0.000000000E+00  0.000000000E+00 -5.210375411E+02  5.210375411E+02  0.000000000E+00  0.00000E+00  9.000E+00
       6     2     1     2   502     0 -1.807418390E+02  1.090067128E+02 -2.765989550E+02  3.881250542E+02  1.720000000E+02  0.00000E+00  9.000E+00
      -6     2     1     2     0   504  1.997400196E+02 -1.887442187E+02 -4.662453278E+01  3.275336663E+02  1.720000000E+02  0.00000E+00  9.000E+00
      24     2     3     3     0     0 -1.441957005E+02  1.018443169E+01 -1.487834523E+02  2.224119627E+02  8.021497840E+01  0.00000E+00  9.000E+00
     -24     2     4     4     0     0  1.128971027E+02 -6.124287261E+01 -7.768677824E+01  1.700988828E+02  8.001218143E+01  0.00000E+00  9.000E+00
     -11     1     5     5     0     0 -6.742852442E+00  1.610223052E+01  2.825152453E+00  1.768415599E+01  2.980232239E-07  0.00000E+00  9.000E+00
      12     1     5     5     0     0 -1.374528481E+02 -5.917798832E+00 -1.516086048E+02  2.047278067E+02  4.264961200E-06  0.00000E+00  9.000E+00
      13     1     6     6     0     0 -8.613085332E+00 -2.046918973E+01 -5.035399827E+00  2.277121469E+01  5.591411304E-07  0.00000E+00  9.000E+00
     -14     1     6     6     0     0  1.215101880E+02 -4.077368288E+01 -7.265137842E+01  1.473276681E+02  3.693564745E-06  0.00000E+00  9.000E+00
       5     1     3     3   502     0 -3.654613852E+01  9.882228116E+01 -1.278155027E+02  1.657130916E+02  4.750000000E+00  0.00000E+00  9.000E+00
      -5     1     4     4     0   504  8.684291694E+01 -1.275013461E+02  3.106224547E+01  1.574347835E+02  4.750000000E+00  0.00000E+00  9.000E+00
      -3     1     1     2     0   503 -1.899818058E+01  7.973750583E+01  1.050590583E+03  1.053783457E+03  1.525878906E-05  0.00000E+00  9.000E+00
</event>
<event>
     13  10001  1.00000E+00  2.81049E+01 -1.00000E+00  1.58843E-01
      -2    -1     0     0     0   511  0.000000000E+00  0.000000000E+00  5.680381601E+01  5.680381601E+01  0.000000000E+00  0.00000E+00  9.000E+00
       2    -1     0     0   502     0  0.000000000E+00  0.000000000E+00 -7.213342479E+02  7.213342479E+02  0.000000000E+00  0.00000E+00  9.000E+00
       6     2     1     2   502     0 -3.231203814E+01  6.819046475E+01 -3.883136419E+02  4.313530941E+02  1.720000000E+02  0.00000E+00  9.000E+00
      -6     2     1     2     0   512  6.249705220E+00 -5.767179253E+01 -2.417748961E+02  3.023312667E+02  1.720000000E+02  0.00000E+00  9.000E+00
      24     2     3     3     0     0  2.816475891E+01  7.545064897E+00 -1.075524398E+02  1.377807476E+02  8.102978130E+01  0.00000E+00  9.000E+00
     -24     2     4     4     0     0 -5.956185075E+01 -6.145316739E+01 -1.538677518E+02  1.923508675E+02  7.745621568E+01  0.00000E+00  9.000E+00
     -11     1     5     5     0     0  1.520624584E+01  2.354816100E+01 -1.130453892E+02  1.164689049E+02  1.348699152E-06  0.00000E+00  9.000E+00
      12     1     5     5     0     0  1.295851307E+01 -1.600309611E+01  5.492949384E+00  2.131184269E+01  2.598106231E-07  0.00000E+00  9.000E+00
      13     1     6     6     0     0 -3.794323028E+01 -5.598578771E+01 -4.502822844E+01  8.125046773E+01  0.000000000E+00  0.00000E+00  9.000E+00
     -14     1     6     6     0     0 -2.161862046E+01 -5.467379673E+00 -1.088395233E+02  1.111003998E+02  1.907348633E-06  0.00000E+00  9.000E+00
       5     1     3     3   502     0 -6.047679705E+01  6.064539985E+01 -2.807612021E+02  2.935723465E+02  4.750000000E+00  0.00000E+00  9.000E+00
      -5     1     4     4     0   512  6.581155597E+01  3.781374850E+00 -8.790714433E+01  1.099803992E+02  4.750000000E+00  0.00000E+00  9.000E+00
      21     1     1     2   512   511  2.606233292E+01 -1.051867222E+01 -3.444189386E+01  4.445370305E+01  4.768371582E-07  0.00000E+00  9.000E+00
</event>
<event>
     13  10001  1.00000E+00  7.71491E+01 -1.00000E+00  1.31721E-01
      21    -1     0     0   502   503  0.000000000E+00  0.000000000E+00  7.199371168E+02  7.199371168E+02  0.000000000E+00  0.00000E+00  9.000E+00
      21    -1     0     0   503   513  0.000000000E+00  0.000000000E+00 -2.422884799E+02  2.422884799E+02  0.000000000E+00  0.00000E+00  9.000E+00
       6     2     1     2   502     0  1.250200749E+02  2.721627381E+01 -2.903937768E+01  2.163285237E+02  1.720000000E+02  0.00000E+00  9.000E+00
      -6     2     1     2     0   504 -1.979668536E+02 -5.233115094E+01  5.804939114E+02  6.391295687E+02  1.720000000E+02  0.00000E+00  9.000E+00
      24     2     3     3     0     0  6.523144527E+01  7.794230437E+01 -4.094579295E+01  1.368795738E+02  8.203240516E+01  0.00000E+00  9.000E+00
     -24     2     4     4     0     0 -1.363803472E+02 -7.381665017E+01  4.113624328E+02  4.577941227E+02  1.277024303E+02  0.00000E+00  9.000E+00
     -11     1     5     5     0     0  2.430399776E+01 -1.436447160E+01 -1.751489196E+01  3.322339224E+01  6.743495762E-07  0.00000E+00  9.000E+00
      12     1     5     5     0     0  4.092744751E+01  9.230677598E+01 -2.343090099E+01  1.036561815E+02  3.536319011E-06  0.00000E+00  9.000E+00
      13     1     6     6     0     0 -1.520909608E+02 -4.399959379E+01  3.803761663E+02  4.120117140E+02  5.394796609E-06  0.00000E+00  9.000E+00
     -14     1     6     6     0     0  1.571061361E+01 -2.981705638E+01  3.098626656E+01  4.578240870E+01  5.840038640E-07  0.00000E+00  9.000E+00
       5     1     3     3   502     0  5.978862964E+01 -5.072603056E+01  1.190641528E+01  7.944894987E+01  4.750000000E+00  0.00000E+00  9.000E+00
      -5     1     4     4     0   504 -6.158650636E+01  2.148549924E+01  1.691314785E+02  1.813354460E+02  4.750000000E+00  0.00000E+00  9.000E+00
      21     1     1     2   504   513  7.294677866E+01  2.511487712E+01 -7.380589686E+01  1.067675043E+02  2.336015456E-06  0.00000E+00  9.000E+00
</event>
<event>
     13  10001  1.00000E+00  5.06159E+01 -1.00000E+00  1.41797E-01
      21    -1     0     0   502   503  0.000000000E+00  0.000000000E+00  2.256797728E+02  2.256797728E+02  0.000000000E+00  0.00000E+00  9.000E+00
      21    -1     0     0   511   504  0.000000000E+00  0.000000000E+00 -5.619342257E+02  5.619342257E+02  0.000000000E+00  0.00000E+00  9.000E+00
       6     2     1     2   502     0  8.478267093E+01 -1.342175892E+01 -4.302245717E+02  4.712169638E+02  1.720000000E+02  0.00000E+00  9.000E+00
      -6     2     1     2     0   504 -1.154103544E+02  5.371960218E+01  1.334656895E+02  2.521952335E+02  1.720000000E+02  0.00000E+00  9.000E+00
      24     2     3     3     0     0  4.401929450E+01  1.319368853E+01 -4.067408188E+02  4.169575494E+02  7.939604933E+01  0.00000E+00  9.000E+00
     -24     2     4     4     0     0 -1.606679586E+01 -1.969447563E+01  8.291657358E+01  1.186417047E+02  8.096098832E+01  0.00000E+00  9.000E+00
     -11     1     5     5     0     0  4.308878477E+01  4.235105158E+01 -2.288628789E+02  2.367033424E+02  2.697398305E-06  0.00000E+00  9.000E+00
      12     1     5     5     0     0  9.305097304E-01 -2.915736305E+01 -1.778779398E+02  1.802542070E+02  3.814697266E-06  0.00000E+00  9.000E+00
      13     1     6     6     0     0 -3.715625452E+00  2.728382680E-01  9.301061682E+01  9.308520373E+01  1.348699152E-06  0.00000E+00  9.000E+00
     -14     1     6     6     0     0 -1.235117041E+01 -1.996731390E+01 -1.009404324E+01  2.555650101E+01  5.462855929E-07  0.00000E+00  9.000E+00
       5     1     3     3   502     0  4.076337643E+01 -2.661544745E+01 -2.348375292E+01  5.425941441E+01  4.750000000E+00  0.00000E+00  9.000E+00
      -5     1     4     4     0   504 -9.934355850E+01  7.341407781E+01  5.054911588E+01  1.335535288E+02  4.750000000E+00  0.00000E+00  9.000E+00
      21     1     1     2   511   503  3.062768343E+01 -4.029784326E+01 -3.949557075E+01  6.420180116E+01  4.768371582E-07  0.00000E+00  9.000E+00
</event>
<event>
     13  10001  1.00000E+00  2.64094E+01 -1.00000E+00  1.60896E-01
      -2    -1     0     0     0   512  0.000000000E+00  0.000000000E+00  1.306023735E+02  1.306023735E+02  0.000000000E+00  0.00000E+00  9.000E+00
       2    -1     0     0   513     0  0.000000000E+00  0.000000000E+00 -3.865098854E+02  3.865098854E+02  0.000000000E+00  0.00000E+00  9.000E+00
       6     2     1     2   502     0  6.170680347E+01 -4.890190100E+01 -1.957217618E+02  2.721950285E+02  1.720000000E+02  0.00000E+00  9.000E+00
      -6     2     1     2     0   512 -5.341766455E+01  2.382705871E+01 -2.742528632E+00  1.816939654E+02  1.720000000E+02  0.00000E+00  9.000E+00
      24     2     3     3     0     0  1.039870550E+02 -3.769623357E+01 -1.787033492E+02  2.250211425E+02  8.040717600E+01  0.00000E+00  9.000E+00
     -24     2     4     4     0     0 -7.557817205E+01 -7.684475211E+00  4.567858783E+01  1.196356712E+02  8.034332076E+01  0.00000E+00  9.000E+00
     -11     1     5     5     0     0  6.623208236E+01  1.572073699E+01 -6.662578534E+01  9.525138097E+01  1.651812370E-06  0.00000E+00  9.000E+00
      12     1     5     5     0     0  3.775497265E+01 -5.341697056E+01 -1.120775638E+02  1.297697616E+02  0.000000000E+00  0.00000E+00  9.000E+00
      13     1     6     6     0     0 -5.832973042E+01 -1.899153710E+01 -8.251898066E+00  6.189612067E+01  1.300419821E-06  0.00000E+00  9.000E+00
     -14     1     6     6     0     0 -1.724844163E+01  1.130706189E+01  5.393048590E+01  5.773955054E+01  1.348699152E-06  0.00000E+00  9.000E+00
       5     1     3     3   502     0 -4.228025154E+01 -1.120566743E+01 -1.701841267E+01  4.717388602E+01  4.750000000E+00  0.00000E+00  9.000E+00
      -5     1     4     4     0   512  2.216050749E+01  3.151153392E+01 -4.842111647E+01  6.205829423E+01  4.750000000E+00  0.00000E+00  9.000E+00
      21     1     1     2   513   502 -8.289138918E+00  2.507484229E+01 -5.744322146E+01  6.322326495E+01  9.536743164E-07  0.00000E+00  9.000E+00
</event>
<event>
     13  10001  1.00000E+00  2.28078E+01 -1.00000E+00  1.65959E-01
      21    -1     0     0   503   504  0.000000000E+00  0.000000000E+00  1.533139080E+02  1.533139080E+02  0.000000000E+00  0.00000E+00  9.000E+00
      21    -1     0     0   502   511  0.000000000E+00  0.000000000E+00 -2.391922944E+02  2.391922944E+02  0.000000000E+00  0.00000E+00  9.000E+00
       6     2     1     2   502     0 -2.099792265E+01  9.197068617E-01 -3.394332107E+00  1.733126657E+02  1.720000000E+02  0.00000E+00  9.000E+00
      -6     2     1     2     0   504  1.943345349E+00 -1.345435819E+01 -5.024712029E+01  1.797041164E+02  1.720000000E+02  0.00000E+00  9.000E+00
      24     2     3     3     0     0 -5.092945053E+01 -5.461149907E+01 -1.015024815E+01  1.096902161E+02  7.970377165E+01  0.00000E+00  9.000E+00
     -24     2     4     4     0     0 -5.432776339E+01  3.326903880E+00 -6.764281733E+01  1.182775650E+02  8.032096542E+01  0.00000E+00  9.000E+00
     -11     1     5     5     0     0 -3.487324530E+01 -2.041952532E+01 -4.344697568E+01  5.933582348E+01  4.768371582E-07  0.00000E+00  9.000E+00
      12     1     5     5     0     0 -1.605620523E+01 -3.419197375E+01  3.329672753E+01  5.035439265E+01  8.259061849E-07  0.00000E+00  9.000E+00
      13     1     6     6     0     0 -3.118616481E+00 -3.324738522E+01 -1.682858666E+01  3.739405997E+01  2.384185791E-07  0.00000E+00  9.000E+00
     -14     1     6     6     0     0 -5.120914691E+01  3.657428909E+01 -5.081423067E+01  8.088350505E+01  1.784161275E-06  0.00000E+00  9.000E+00
       5     1     3     3   502     0  2.993152788E+01  5.553120593E+01  6.755916041E+00  6.362244961E+01  4.750000000E+00  0.00000E+00  9.000E+00
      -5     1     4     4     0   504  5.627110874E+01 -1.678126207E+01  1.739569705E+01  6.142655135E+01  4.750000000E+00  0.00000E+00  9.000E+00
      21     1     1     2   503   511  1.905457731E+01  1.253465133E+01 -3.223693405E+01  3.948942032E+01  6.743495762E-07  0.00000E+00  9.000E+00
</event>
<event>
     13  10001  1.00000E+00  2.80616E+01 -1.00000E+00  1.58893E-01
      21    -1     0     0   502   503  0.000000000E+00  0.000000000E+00  1.191068511E+02  1.191068511E+02  0.000000000E+00  0.00000E+00  9.000E+00
      21    -1     0     0   503   512  0.000000000E+00  0.000000000E+00 -9.285564349E+02  9.285564349E+02  0.000000000E+00  0.00000E+00  9.000E+00
       6     2     1     2   502     0  1.615830271E+02 -3.829595738E+01 -2.406424257E+02  3.392173817E+02  1.720000000E+02  0.00000E+00  9.000E+00
      -6     2     1     2     0   504 -1.346054974E+02  3.057168875E+01 -1.058254851E+02  2.446145976E+02  1.720000000E+02  0.00000E+00  9.000E+00
      24     2     3     3     0     0  3.136275766E+01  2.641592047E+01 -1.041187368E+02  1.397024052E+02  8.363388818E+01  0.00000E+00  9.000E+00
     -24     2     4     4     0     0 -1.422471682E+02  1.830512565E+01 -1.339227783E+02  2.126633208E+02  8.198196742E+01  0.00000E+00  9.000E+00
     -11     1     5     5     0     0  3.572987668E+01 -1.057943259E+01 -9.397581758E+01  1.010940294E+02  0.000000000E+00  0.00000E+00  9.000E+00
      12     1     5     5     0     0 -4.367119024E+00  3.699535306E+01 -1.014291920E+01  3.860837586E+01  6.848052319E-07  0.00000E+00  9.000E+00
      13     1     6     6     0     0 -4.853196715E+01 -2.715782894E+01 -7.375881574E+01  9.237565917E+01  1.907348633E-06  0.00000E+00  9.000E+00
     -14     1     6     6     0     0 -9.371520110E+01  4.546295459E+01 -6.016396255E+01  1.202876617E+02  1.168007728E-06  0.00000E+00  9.000E+00
       5     1     3     3   502     0  1.302202694E+02 -6.471187785E+01 -1.365236890E+02  1.995149765E+02  4.750000000E+00  0.00000E+00  9.000E+00
      -5     1     4     4     0   504  7.641670856E+00  1.226656309E+01  2.809729321E+01  3.195127680E+01  4.750000000E+00  0.00000E+00  9.000E+00
      21     1     1     2   504   512 -2.697752967E+01  7.724268630E+00 -4.629816730E+02  4.638313066E+02  5.394796609E-06  0.00000E+00  9.000E+00
</event>
<event>
     13  10001  1.00000E+00  1.37800E+02 -1.00000E+00  1.20030E-01
       2    -1     0     0   502     0  0.000000000E+00  0.000000000E+00  1.032723505E+03  1.032723505E+03  0.000000000E+00  0.00000E+00  9.000E+00
      21    -1     0     0   503   504  0.000000000E+00  0.000000000E+00 -1.112664595E+02  1.112664595E+02  0.000000000E+00  0.00000E+00  9.000E+00
       6     2     1     2   502     0 -1.246777289E+02 -1.269699130E+01  3.645789537E+02  4.221463765E+02  1.720000000E+02  0.00000E+00  9.000E+00
      -6     2     1     2     0   504  2.500846799E+01  1.078546000E+02  7.056283799E+01  2.163819593E+02  1.720000000E+02  0.00000E+00  9.000E+00
      24     2     3     3     0     0 -3.751792902E+01  1.764809699E+01  2.886557223E+02  3.025447265E+02  8.057378746E+01  0.00000E+00  9.000E+00
     -24     2     4     4     0     0 -3.214633132E+01  1.132735305E+02  7.016701051E+01  1.587733222E+02  8.013288423E+01  0.00000E+00  9.000E+00
     -11     1     5     5     0     0 -4.624145067E+01 -1.413604738E+01  2.321207086E+02  2.371036123E+02  5.394796609E-06  0.00000E+00  9.000E+00
      12     1     5     5     0     0  8.723521647E+00  3.178414436E+01  5.653501363E+01  6.544111421E+01  0.000000000E+00  0.00000E+00  9.000E+00
      13     1     6     6     0     0 -9.801509607E+00  5.619855000E+01 -9.940821414E+00  5.790653282E+01  1.962432579E-06  0.00000E+00  9.000E+00
     -14     1     6     6     0     0 -2.234482171E+01  5.707498052E+01  8.010783193E+01  1.008667894E+02  1.348699152E-06  0.00000E+00  9.000E+00
       5     1     3     3   502     0 -8.715979986E+01 -3.034508828E+01  7.592323146E+01  1.196016499E+02  4.750000000E+00  0.00000E+00  9.000E+00
      -5     1     4     4     0   504  5.715479931E+01 -5.418930558E+00  3.958274765E-01  5.760863713E+01  4.750000000E+00  0.00000E+00  9.000E+00
       2     1     1     2   503     0  9.966926089E+01 -9.515760867E+01  4.863152539E+02  5.054616288E+02  5.394796609E-06  0.00000E+00  9.000E+00
</event>
<event>
     13  10001  1.00000E+00  6.33849E+01 -1.00000E+00  1.36230E-01
      21    -1     0     0   503   504  0.000000000E+00  0.000000000E+00  1.992941822E+03  1.992941822E+03  0.000000000E+00  0.00000E+00  9.000E+00
      21    -1     0     0   511   503  0.000000000E+00  0.000000000E+00 -9.015486638E+01  9.015486638E+01  0.000000000E+00  0.00000E+00  9.000E+00
       6     2     1     2   502     0  4.563203712E+01  2.420980629E+02  1.204425461E+03  1.241337361E+03  1.720000000E+02  0.00000E+00  9.000E+00
      -6     2     1     2     0   504 -8.288995529E+01 -2.933766976E+02  6.951362459E+02  7.782923819E+02  1.720000000E+02  0.00000E+00  9.000E+00
      24     2     3     3     0     0  3.649508443E+01  2.070993399E+02  6.919589983E+02  7.275739607E+02  7.959010710E+01  0.00000E+00  9.000E+00
     -24     2     4     4     0     0  4.913628955E+00 -1.656630631E+02  2.808773789E+02  3.359653386E+02  8.069828096E+01  0.00000E+00  9.000E+00
     -11     1     5     5     0     0 -8.695486286E+00  1.387108316E+02  4.973965818E+02  5.164490932E+02  7.629394531E-06  0.00000E+00  9.000E+00
      12     1     5     5     0     0  4.519057072E+01  6.838850835E+01  1.945624165E+02  2.111248675E+02  2.697398305E-06  0.00000E+00  9.000E+00
      13     1     6     6     0     0  3.400754797E+01 -7.038707874E+01  1.687501203E+02  1.859770343E+02  2.697398305E-06  0.00000E+00  9.000E+00
     -14     1     6     6     0     0 -2.909391902E+01 -9.527598436E+01  1.121272585E+02  1.499883043E+02  3.568322551E-06  0.00000E+00  9.000E+00
       5     1     3     3   502     0  9.136952693E+00  3.499872293E+01  5.124664623E+02  5.137634008E+02  4.750000000E+00  0.00000E+00  9.000E+00
      -5     1     4     4     0   504 -8.780358424E+01 -1.277136345E+02  4.142588670E+02  4.423270433E+02  4.750000000E+00  0.00000E+00  9.000E+00
      21     1     1     2   511   502  3.725791816E+01  5.127863476E+01  3.225248922E+00  6.346694477E+01  2.087439419E-06  0.00000E+00  9.000E+00
</event>
<event>
     13  10001  1.00000E+00  4.41048E+01 -1.00000E+00  1.45441E-01
      21    -1     0     0   502   503  0.000000000E+00  0.000000000E+00  5.563324613E+02  5.563324613E+02  0.000000000E+00  0.00000E+00  9.000E+00
      21    -1     0     0   503   512  0.000000000E+00  0.000000000E+00 -1.315137833E+02  1.315137833E+02  0.000000000E+00  0.00000E+00  9.000E+00
       6     2     1     2   502     0  6.217648725E+01  2.809180528E+01  6.689307594E+01  1.967580969E+02  1.720000000E+02  0.00000E+00  9.000E+00
      -6     2     1     2     0   504 -1.059600104E+02 -3.340589994E+01  3.872999725E+02  4.380967321E+02  1.720000000E+02  0.00000E+00  9.000E+00
      24     2     3     3     0     0  2.345710524E+01  6.056377296E+01 -1.245824589E+01  1.025624813E+02  7.839418533E+01  0.00000E+00  9.000E+00
     -24     2     4     4     0     0 -1.022937978E+01 -5.063686116E+01  2.716446755E+02  2.869015936E+02  7.650465858E+01  0.00000E+00  9.000E+00
     -11     1     5     5     0     0 -2.757491327E+01  3.341432153E+01  4.884187361E-01  4.332587307E+01  4.059711911E-07  0.00000E+00  9.000E+00
      12     1     5     5     0     0  5.103201851E+01  2.714945143E+01 -1.294666463E+01  5.923660820E+01  1.892388805E-06  0.00000E+00  9.000E+00
      13     1     6     6     0     0 -2.261392652E+01  1.183959460E+01  4.801122006E+01  5.437502114E+01  0.000000000E+00  0.00000E+00  9.000E+00
     -14     1     6     6     0     0  1.238454674E+01 -6.247645576E+01  2.236334554E+02  2.325265725E+02  2.697398305E-06  0.00000E+00  9.000E+00
       5     1     3     3   502     0  3.871938201E+01 -3.247196768E+01  7.935132184E+01  9.419561564E+01  4.750000000E+00  0.00000E+00  9.000E+00
      -5     1     4     4     0   504 -9.573063062E+01  1.723096123E+01  1.156552970E+02  1.511951384E+02  4.750000000E+00  0.00000E+00  9.000E+00
      21     1     1     2   504   512  4.378352314E+01  5.314094655E+00 -2.937437040E+01  5.299141569E+01  0.000000000E+00  0.00000E+00  9.000E+00
</event>
<event>
     13  10001  1.00000E+00  1.73253E+01 -1.00000E+00  1.76398E-01
      21    -1     0     0   503   504  0.000000000E+00  0.000000000E+00  2.261472625E+02  2.261472625E+02  0.000000000E+00  0.00000E+00  9.000E+00
      21    -1     0     0   502   511  0.000000000E+00  0.000000000E+00 -2.992822451E+02  2.992822451E+02  0.000000000E+00  0.00000E+00  9.000E+00
       6     2     1     2   502     0  9.711377493E+01 -7.220744639E+01  1.011797377E+02  2.333802475E+02  1.720000000E+02  0.00000E+00  9.000E+00
      -6     2     1     2     0   504 -9.735928212E+01  8.953102495E+01 -1.624425463E+02  2.710465183E+02  1.720000000E+02  0.00000E+00  9.000E+00
      24     2     3     3     0     0 -2.348131565E+00 -3.793393256E+01  9.231131072E+01  1.276988580E+02  7.963117027E+01  0.00000E+00  9.000E+00
     -24     2     4     4     0     0 -6.906234574E+01 -5.280719210E-01 -3.301825389E+01  1.107824628E+02  8.007910157E+01  0.00000E+00  9.000E+00
     -11     1     5     5     0     0  2.210641990E+01  8.830175936E+00  6.296765765E+01  6.731709826E+01  2.132480600E-06  0.00000E+00  9.000E+00
      12     1     5     5     0     0 -2.445455146E+01 -4.676410850E+01  2.934365307E+01  6.038175972E+01  1.936921693E-06  0.00000E+00  9.000E+00
      13     1     6     6     0     0  1.288318376E+01  8.397099736E+00 -2.311000151E+01  2.775896031E+01  0.000000000E+00  0.00000E+00  9.000E+00
     -14     1     6     6     0     0 -8.194552951E+01 -8.925171657E+00 -9.908252382E+00  8.302350246E+01  2.457562462E-06  0.00000E+00  9.000E+00
       5     1     3     3   502     0  9.946190649E+01 -3.427351382E+01  8.868426992E+00  1.056813895E+02  4.750000000E+00  0.00000E+00  9.000E+00
      -5     1     4     4     0   504 -2.829693638E+01  9.005909687E+01 -1.294242924E+02  1.602640555E+02  4.750000000E+00  0.00000E+00  9.000E+00
      21     1     1     2   503   511  2.455071972E-01 -1.732357856E+01 -1.187217403E+01  2.100274183E+01  2.384185791E-07  0.00000E+00  9.000E+00
</event>
<event>
     13  10001  1.00000E+00  7.68242E+01 -1.00000E+00  1.31814E-01
      -1    -1     0     0     0   503  0.000000000E+00  0.000000000E+00  3.575909045E+02  3.575909045E+02  0.000000000E+00  0.00000E+00  9.000E+00
      21    -1     0     0   503   504  0.000000000E+00  0.000000000E+00 -6.409663848E+02  6.409663848E+02  0.000000000E+00  0.00000E+00  9.000E+00
       6     2     1     2   502     0  1.391299782E+02  4.794460705E+01 -5.163394850E+02  5.637785912E+02  1.720000000E+02  0.00000E+00  9.000E+00
      -6     2     1     2     0   504 -6.249914376E+01 -4.249675619E+01 -1.678173525E+00  1.878801041E+02  1.720000000E+02  0.00000E+00  9.000E+00
      24     2     3     3     0     0  1.674758051E+02  4.699661767E+01 -3.983773234E+02  4.423618763E+02  8.199213666E+01  0.00000E+00  9.000E+00
     -24     2     4     4     0     0 -8.433288382E+01 -7.707347998E+01  2.059522300E+01  1.410727465E+02  8.015609765E+01  0.00000E+00  9.000E+00
     -11     1     5     5     0     0  6.720795109E+01  1.691453716E+00 -7.471682121E+01  1.005105620E+02  3.568322551E-06  0.00000E+00  9.000E+00
      12     1     5     5     0     0  1.002678541E+02  4.530516396E+01 -3.236605022E+02  3.418513143E+02  5.394796609E-06  0.00000E+00  9.000E+00
      13     1     6     6     0     0 -4.684487858E+01 -5.252269745E+01 -2.729565333E+01  7.548595291E+01  1.348699152E-06  0.00000E+00  9.000E+00
     -14     1     6     6     0     0 -3.748800524E+01 -2.455078252E+01  4.789087633E+01  6.558679360E+01  3.234066955E-06  0.00000E+00  9.000E+00
       5     1     3     3   502     0 -2.834582691E+01  9.479893787E-01 -1.179621616E+02  1.214167149E+02  4.750000000E+00  0.00000E+00  9.000E+00
      -5     1     4     4     0   504  2.183374006E+01  3.457672379E+01 -2.227339652E+01  4.680735760E+01  4.750000000E+00  0.00000E+00  9.000E+00
      -1     1     1     2     0   502 -7.663083447E+01 -5.447850867E+00  2.346421782E+02  2.468985939E+02  2.697398305E-06  0.00000E+00  9.000E+00
</event>
<event>
     13  10001  1.00000E+00  3.80129E+01 -1.00000E+00  1.49597E-01
      21    -1     0     0   502   503  0.000000000E+00  0.000000000E+00  8.840512210E+02  8.840512210E+02  0.000000000E+00  0.00000E+00  9.000E+00
      21    -1     0     0   503   511  0.000000000E+00  0.000000000E+00 -4.416487666E+01  4.416487666E+01  0.000000000E+00  0.00000E+00  9.000E+00
       6     2     1     2   502     0  1.327179193E+01 -1.802395749E+01  3.560195075E+02  3.960238543E+02  1.720000000E+02  0.00000E+00  9.000E+00
      -6     2     1     2     0   504  2.227628266E+01  3.148928567E+01  4.408594674E+02  4.747935107E+02  1.720000000E+02  0.00000E+00  9.000E+00
      24     2     3     3     0     0 -1.727264509E+01  4.132233661E-01  3.500038786E+02  3.595321764E+02  8.038753515E+01  0.00000E+00  9.000E+00
     -24     2     4     4     0     0  2.981040335E+01  6.536726678E+01  4.222197743E+02  4.351137774E+02  7.676536824E+01  0.00000E+00  9.000E+00
     -11     1     5     5     0     0  7.550966852E+00 -2.272970998E+01  2.867518694E+02  2.877503978E+02  6.607249480E-06  0.00000E+00  9.000E+00
      12     1     5     5     0     0 -2.482361194E+01  2.314293335E+01  6.325200917E+01  7.178177859E+01  2.023048729E-06  0.00000E+00  9.000E+00
      13     1     6     6     0     0  2.078751401E+01 -5.817664684E+00  2.096846536E+02  2.107928365E+02  2.697398305E-06  0.00000E+00  9.000E+00
     -14     1     6     6     0     0  9.022889338E+00  7.118493147E+01  2.125351207E+02  2.243209409E+02  2.697398305E-06  0.00000E+00  9.000E+00
       5     1     3     3   502     0  3.054443702E+01 -1.843718086E+01  6.015628914E+00  3.649167798E+01  4.750000000E+00  0.00000E+00  9.000E+00
      -5     1     4     4     0   504 -7.534120684E+00 -3.387798111E+01  1.863969302E+01  3.967973330E+01  4.750000000E+00  0.00000E+00  9.000E+00
      21     1     1     2   504   511 -3.554807460E+01 -1.346532818E+01  4.300736954E+01  5.739873261E+01  9.536743164E-07  0.00000E+00  9.000E+00
</event>
<event>
     13  10001  1.00000E+00  5.23241E+01 -1.00000E+00  1.40946E-01
      21    -1     0     0   512   503  0.000000000E+00  0.000000000E+00  4.694565462E+02  4.694565462E+02  0.000000000E+00  0.00000E+00  9.000E+00
      21    -1     0     0   503   504  0.000000000E+00  0.000000000E+00 -3.124637603E+02  3.124637603E+02  0.000000000E+00  0.00000E+00  9.000E+00
       6     2     1     2   502     0 -1.366460110E+02 -4.197984728E+01 -2.442362287E+00  2.236613624E+02  1.720000000E+02  0.00000E+00  9.000E+00
      -6     2     1     2     0   504  8.487379299E+01  3.440016409E+01 -1.490736558E+02  2.453444250E+02  1.720000000E+02  0.00000E+00  9.000E+00
      24     2     3     3     0     0 -1.242411906E+02 -4.549504858E+01 -5.873855022E+01  1.657125964E+02  8.065218175E+01  0.00000E+00  9.000E+00
     -24     2     4     4     0     0  2.498992467E+01  8.265854426E+01 -1.030554595E+02  1.555937379E+02  7.830742157E+01  0.00000E+00  9.000E+00
     -11     1     5     5     0     0 -4.388895424E+01  2.457448159E+00  1.513824671E+01  4.649135263E+01  1.168007728E-06  0.00000E+00  9.000E+00
      12     1     5     5     0     0 -8.035223638E+01 -4.795249674E+01 -7.387679692E+01  1.192212437E+02  1.651812370E-06  0.00000E+00  9.000E+00
      13     1     6     6     0     0 -2.161790147E+01  4.376237505E+01 -7.310300399E+01  8.790067307E+01  0.000000000E+00  0.00000E+00  9.000E+00
     -14     1     6     6     0     0  4.660782614E+01  3.889616921E+01 -2.995245550E+01  6.769306484E+01  4.768371582E-07  0.00000E+00  9.000E+00
       5     1     3     3   502     0 -1.240482036E+01  3.515201306E+00  5.629618793E+01  5.794876603E+01  4.750000000E+00  0.00000E+00  9.000E+00
      -5     1     4     4     0   504  5.988386832E+01 -4.825838017E+01 -4.601819627E+01  8.975068707E+01  4.750000000E+00  0.00000E+00  9.000E+00
      21     1     1     2   512   502  5.177221799E+01  7.579683184E+00  3.085088040E+02  3.129145191E+02  3.814697266E-06  0.00000E+00  9.000E+00
</event>
<event>
     13  10001  1.00000E+00  2.13523E+01 -1.00000E+00  1.68345E-01
      21    -1     0     0   503   511  0.000000000E+00  0.000000000E+00  6.800628503E+02  6.800628503E+02  0.000000000E+00  0.00000E+00  9.000E+00
      21    -1     0     0   502   503  0.000000000E+00  0.000000000E+00 -1.225447067E+02  1.225447067E+02  0.000000000E+00  0.00000E+00  9.000E+00
       6     2     1     2   502     0 -8.726602562E+01  5.206615155E+01  8.591741017E+01  2.174673418E+02  1.720000000E+02  0.00000E+00  9.000E+00
      -6     2     1     2     0   504  7.427395683E+01 -6.901098427E+01  1.201092791E+02  2.330008059E+02  1.720000000E+02  0.00000E+00  9.000E+00
      24     2     3     3     0     0  1.651293666E+01  1.125595788E+01  8.298961074E+00  8.151613339E+01  7.859156178E+01  0.00000E+00  9.000E+00
     -24     2     4     4     0     0 -3.883688681E+00  4.428729550E+00  1.475858912E+01  8.259023610E+01  8.104711262E+01  0.00000E+00  9.000E+00
     -11     1     5     5     0     0 -1.531170807E+01 -7.260207320E+00 -2.610628419E+01  3.112389899E+01  3.371747881E-07  0.00000E+00  9.000E+00
      12     1     5     5     0     0  3.182464473E+01  1.851616520E+01  3.440524526E+01  5.039223440E+01  4.768371582E-07  0.00000E+00  9.000E+00
      13     1     6     6     0     0  4.310342080E-01 -3.820571545E+01  4.064132595E+00  3.842368615E+01  1.132488251E-06  0.00000E+00  9.000E+00
     -14     1     6     6     0     0 -4.314722889E+00  4.263444500E+01  1.069445652E+01  4.416654995E+01  1.072883606E-06  0.00000E+00  9.000E+00
       5     1     3     3   502     0 -1.037789623E+02  4.081019367E+01  7.761844910E+01  1.359512084E+02  4.750000000E+00  0.00000E+00  9.000E+00
      -5     1     4     4     0   504  7.815764551E+01 -7.343971382E+01  1.053506900E+02  1.504105698E+02  4.750000000E+00  0.00000E+00  9.000E+00
      21     1     1     2   504   511  1.299206879E+01  1.694483272E+01  3.514914543E+02  3.521394094E+02  3.814697266E-06  0.00000E+00  9.000E+00
</event>
<event>
     13  10001  1.00000E+00  1.95722E+01 -1.00000E+00  1.71605E-01
      21    -1     0     0   503   504  0.000000000E+00  0.000000000E+00  3.073896111E+02  3.073896111E+02  0.000000000E+00  0.00000E+00  9.000E+00
      21    -1     0     0   512   503  0.000000000E+00  0.000000000E+00 -4.206287964E+02  4.206287964E+02  0.000000000E+00  0.00000E+00  9.000E+00
       6     2     1     2   502     0  7.610036710E+01  2.254617506E+01 -2.865260964E+02  3.434833326E+02  1.720000000E+02  0.00000E+00  9.000E+00
      -6     2     1     2     0   504 -7.908782221E+01 -3.203328203E+00  2.453208958E+02  3.098894752E+02  1.720000000E+02  0.00000E+00  9.000E+00
      24     2     3     3     0     0 -1.046988351E+01  5.112801514E+01 -1.744848566E+02  1.989595222E+02  8.010139757E+01  0.00000E+00  9.000E+00
     -24     2     4     4     0     0 -2.934242247E+01 -4.442698521E+01  2.219504927E+02  2.410219724E+02  7.742632130E+01  0.00000E+00  9.000E+00
     -11     1     5     5     0     0 -3.351997062E+01  2.229927633E+00 -3.132342849E+01  4.593166860E+01  1.066240300E-06  0.00000E+00  9.000E+00
      12     1     5     5     0     0  2.305008710E+01  4.889808751E+01 -1.431614281E+02  1.530278536E+02  1.907348633E-06  0.00000E+00  9.000E+00
      13     1     6     6     0     0  2.078135423E+01 -3.717586497E+01  8.659590258E+01  9.650264226E+01  2.336015456E-06  0.00000E+00  9.000E+00
     -14     1     6     6     0     0 -5.012377670E+01 -7.251120235E+00  1.353545901E+02  1.445193302E+02  2.697398305E-06  0.00000E+00  9.000E+00
       5     1     3     3   502     0  8.657025061E+01 -2.858184008E+01 -1.120412398E+02  1.445238105E+02  4.750000000E+00  0.00000E+00  9.000E+00
      -5     1     4     4     0   504 -4.974539974E+01  4.122365701E+01  2.337040307E+01  6.886750273E+01  4.750000000E+00  0.00000E+00  9.000E+00
      21     1     1     2   512   502  2.987455115E+00 -1.934284686E+01 -7.203398463E+01  7.464559970E+01  0.000000000E+00  0.00000E+00  9.000E+00
</event>
<event>
     13  10001  1.00000E+00  5.09561E+00 -1.00000E+00  2.46448E-01
      21    -1     0     0   503   504  0.000000000E+00  0.000000000E+00  1.744247699E+02  1.744247699E+02  0.000000000E+00  0.00000E+00  9.000E+00
      21    -1     0     0   511   503  0.000000000E+00  0.000000000E+00 -7.849208492E+02  7.849208492E+02  0.000000000E+00  0.00000E+00  9.000E+00
       6     2     1     2   502     0  1.012436523E+02  9.260973090E+01 -7.304538275E+01  2.318328435E+02  1.720000000E+02  0.00000E+00  9.000E+00
      -6     2     1     2     0   504 -9.787365064E+01 -8.878765027E+01 -2.876447849E+01  2.188010365E+02  1.720000000E+02  0.00000E+00  9.000E+00
      24     2     3     3     0     0  4.155759760E+01  9.355050018E+01  1.209744259E+01  1.277407046E+02  7.544938369E+01  0.00000E+00  9.000E+00
     -24     2     4     4     0     0 -2.659018072E+01  9.567607752E+00  2.141511409E+01  8.728813262E+01  7.976236052E+01  0.00000E+00  9.000E+00
     -11     1     5     5     0     0 -3.457647160E+00  5.934175643E+01 -2.001182233E+01  6.272059002E+01  2.384185791E-07  0.00000E+00  9.000E+00
      12     1     5     5     0     0  4.501524476E+01  3.420874375E+01  3.210926491E+01  6.502011460E+01  1.348699152E-06  0.00000E+00  9.000E+00
      13     1     6     6     0     0  2.087639535E+01 -1.093946172E+01 -1.126164225E+01  2.612126130E+01  2.920019320E-07  0.00000E+00  9.000E+00
     -14     1     6     6     0     0 -4.746657607E+01  2.050706947E+01  3.267675634E+01  6.116687132E+01  0.000000000E+00  0.00000E+00  9.000E+00
       5     1     3     3   502     0  5.968605466E+01 -9.407692781E-01 -8.514282534E+01  1.040921389E+02  4.750000000E+00  0.00000E+00  9.000E+00
      -5     1     4     4     0   504 -7.128346992E+01 -9.835525802E+01 -5.017959257E+01  1.315129038E+02  4.750000000E+00  0.00000E+00  9.000E+00
      21     1     1     2   511   502 -3.370001612E+00 -3.822080628E+00 -5.086862180E+02  5.087117392E+02  9.344061824E-06  0.00000E+00  9.000E+00
</event>
<event>
     13  10001  1.00000E+00  7.57701E+01 -1.00000E+00  1.32122E-01
      21    -1     0     0   502   503  0.000000000E+00  0.000000000E+00  1.633188056E+02  1.633188056E+02  0.000000000E+00  0.00000E+00  9.000E+00
       2    -1     0     0   503     0  0.000000000E+00  0.000000000E+00 -9.849929108E+02  9.849929108E+02  0.000000000E+00  0.00000E+00  9.000E+00
       6     2     1     2   502     0  5.816973267E+01  4.653201236E+01  6.310707227E+01  1.977762588E+02  1.720000000E+02  0.00000E+00  9.000E+00
      -6     2     1     2     0   504 -1.008891935E+02  1.604714190E+01 -2.982374656E+02  3.591179834E+02  1.720000000E+02  0.00000E+00  9.000E+00
      24     2     3     3     0     0  8.866149109E+01  3.554101406E+01 -1.711395788E+00  1.251501913E+02  8.084316811E+01  0.00000E+00  9.000E+00
     -24     2     4     4     0     0 -1.280035923E+02  8.545132377E+00 -1.642259305E+02  2.221029302E+02  7.682197867E+01  0.00000E+00  9.000E+00
     -11     1     5     5     0     0  1.881277030E+01 -2.222861775E+01  1.534454623E+01  3.291636177E+01  5.057621821E-07  0.00000E+00  9.000E+00
      12     1     5     5     0     0  6.984872079E+01  5.776963181E+01 -1.705594202E+01  9.223382955E+01  1.702649219E-06  0.00000E+00  9.000E+00
      13     1     6     6     0     0 -3.283873230E+01 -2.634231928E+01 -2.212843982E+01  4.756015111E+01  1.469710828E-06  0.00000E+00  9.000E+00
     -14     1     6     6     0     0 -9.516486003E+01  3.488745166E+01 -1.420974907E+02  1.745427791E+02  2.697398305E-06  0.00000E+00  9.000E+00
       5     1     3     3   502     0 -3.049175842E+01  1.099099829E+01  6.481846806E+01  7.262606747E+01  4.750000000E+00  0.00000E+00  9.000E+00
      -5     1     4     4     0   504  2.711439888E+01  7.502009527E+00 -1.340115351E+02  1.370150532E+02  4.750000000E+00  0.00000E+00  9.000E+00
       2     1     1     2   504     0  4.271946079E+01 -6.257915426E+01 -5.865437118E+02  5.914174742E+02  0.000000000E+00  0.00000E+00  9.000E+00
</event>
<event>
     13  10001  1.00000E+00  4.59923E+01 -1.00000E+00  1.44311E-01
       2    -1     0     0   502     0  0.000000000E+00  0.000000000E+00  5.985188229E+02  5.985188229E+02  0.000000000E+00  0.00000E+00  9.000E+00
      21    -1     0     0   503   504  0.000000000E+00  0.000000000E+00 -2.803995827E+02  2.803995827E+02  0.000000000E+00  0.00000E+00  9.000E+00
       6     2     1     2   502     0  1.256020622E+02 -4.887399001E+01  2.785129957E+02  3.540028724E+02  1.720000000E+02  0.00000E+00  9.000E+00
      -6     2     1     2     0   504 -8.067917289E+01  3.901358051E+01 -2.013755087E+02  2.795841267E+02  1.720000000E+02  0.00000E+00  9.000E+00
      24     2     3     3     0     0  4.923795225E+01 -8.832270528E+01  1.095520699E+02  1.643768316E+02  6.923012738E+01  0.00000E+00  9.000E+00
     -24     2     4     4     0     0  5.657980665E+00  2.410200352E+01 -3.057485791E+01  8.756359650E+01  7.822814185E+01  0.00000E+00  9.000E+00
     -11     1     5     5     0     0  6.295804311E+01 -4.731768723E+01  7.803590482E+01  1.108705604E+02  1.651812370E-06  0.00000E+00  9.000E+00
      12     1     5     5     0     0 -1.372009087E+01 -4.100501805E+01  3.151616512E+01  5.350627124E+01  6.743495762E-07  0.00000E+00  9.000E+00
      13     1     6     6     0     0  7.834647254E+00  5.071785065E+01 -3.257356333E+01  6.078420107E+01  9.536743164E-07  0.00000E+00  9.000E+00
     -14     1     6     6     0     0 -2.176666589E+00 -2.661584713E+01  1.998705414E+00  2.677939543E+01  7.737132898E-07  0.00000E+00  9.000E+00
       5     1     3     3   502     0  7.636410995E+01  3.944871527E+01  1.689609258E+02  1.896260408E+02  4.750000000E+00  0.00000E+00  9.000E+00
      -5     1     4     4     0   504 -8.633715355E+01  1.491157700E+01 -1.708006508E+02  1.920205302E+02  4.750000000E+00  0.00000E+00  9.000E+00
       2     1     1     2   503     0 -4.492288930E+01  9.860409495E+00  2.409817532E+02  2.453314065E+02  2.697398305E-06  0.00000E+00  9.000E+00
</event>
<event>
     13  10001  1.00000E+00  3.09836E+01 -1.00000E+00  1.55731E-01
      21    -1     0     0   503   504  0.000000000E+00  0.000000000E+00  5.161531677E+01  5.161531677E+01  0.000000000E+00  0.00000E+00  9.000E+00
       2    -1     0     0   502     0  0.000000000E+00  0.000000000E+00 -1.014320812E+03  1.014320812E+03  0.000000000E+00  0.00000E+00  9.000E+00
       6     2     1     2   502     0  8.250349375E+00  2.560060726E+01 -1.603842713E+02  2.367077815E+02  1.720000000E+02  0.00000E+00  9.000E+00
      -6     2     1     2     0   504 -3.694084757E+01 -1.390272783E+01 -6.351298014E+02  6.591902431E+02  1.720000000E+02  0.00000E+00  9.000E+00
      24     2     3     3     0     0 -5.583123111E+01  4.079229145E+01 -1.171168758E+02  1.577656113E+02  7.995303687E+01  0.00000E+00  9.000E+00
     -24     2     4     4     0     0  5.869658008E+00  4.694627206E+01 -4.512811605E+02  4.608011673E+02  8.027841918E+01  0.00000E+00  9.000E+00
     -11     1     5     5     0     0  6.874810146E+00  1.464367122E+01 -7.739166111E+01  7.906433666E+01  1.348699152E-06  0.00000E+00  9.000E+00
      12     1     5     5     0     0 -6.270604125E+01  2.614862023E+01 -3.972521471E+01  7.870127466E+01  1.348699152E-06  0.00000E+00  9.000E+00
      13     1     6     6     0     0 -2.928699140E+01  4.751039804E+01 -3.230979142E+02  3.278829485E+02  6.607249480E-06  0.00000E+00  9.000E+00
     -14     1     6     6     0     0  3.515664941E+01 -5.641259858E-01 -1.281832464E+02  1.329182188E+02  3.814697266E-06  0.00000E+00  9.000E+00
       5     1     3     3   502     0  6.408158048E+01 -1.519168420E+01 -4.326739548E+01  7.894217021E+01  4.750000000E+00  0.00000E+00  9.000E+00
      -5     1     4     4     0   504 -4.281050558E+01 -6.084899989E+01 -1.838486408E+02  1.983890758E+02  4.750000000E+00  0.00000E+00  9.000E+00
       2     1     1     2   503     0  2.869049819E+01 -1.169787943E+01 -1.671914225E+02  1.700381041E+02  1.907348633E-06  0.00000E+00  9.000E+00
</event>
<event>
     13  10001  1.00000E+00  3.42916E+01 -1.00000E+00  1.52624E-01
       2    -1     0     0   502     0  0.000000000E+00  0.000000000E+00  3.912570243E+02  3.912570243E+02  0.000000000E+00  0.00000E+00  9.000E+00
      -2    -1     0     0     0   511  0.000000000E+00  0.000000000E+00 -2.646615311E+02  2.646615311E+02  0.000000000E+00  0.00000E+00  9.000E+00
       6     2     1     2   502     0 -9.326245548E+01 -2.327629249E+02  1.428957008E+02  3.359756630E+02  1.720000000E+02  0.00000E+00  9.000E+00
      -6     2     1     2     0   512  9.855161894E+01  1.988817322E+02  2.544234389E+00  2.808145974E+02  1.720000000E+02  0.00000E+00  9.000E+00
      24     2     3     3     0     0 -1.349592465E+01 -5.198779563E+01  2.806913917E+01  1.073929677E+02  8.865947254E+01  0.00000E+00  9.000E+00
     -24     2     4     4     0     0  9.045401589E+01  1.712219386E+02  5.932604345E+01  2.169602969E+02  7.780301879E+01  0.00000E+00  9.000E+00
     -11     1     5     5     0     0  2.838200255E+01 -3.654748283E+01  4.002893145E+01  6.118473604E+01  1.651812370E-06  0.00000E+00  9.000E+00
      12     1     5     5     0     0 -4.187792720E+01 -1.544031280E+01 -1.195979229E+01  4.620823171E+01  9.233911863E-07  0.00000E+00  9.000E+00
      13     1     6     6     0     0  2.099311479E+01  3.022600276E+01  4.644299792E+01  5.925600533E+01  1.651812370E-06  0.00000E+00  9.000E+00
     -14     1     6     6     0     0  6.946090110E+01  1.409959359E+02  1.288304554E+01  1.577042916E+02  3.446777414E-06  0.00000E+00  9.000E+00
       5     1     3     3   502     0 -7.976653083E+01 -1.807751293E+02  1.148265617E+02  2.285826953E+02  4.750000000E+00  0.00000E+00  9.000E+00
      -5     1     4     4     0   512  8.097603051E+00  2.765979352E+01 -5.678180906E+01  6.385430051E+01  4.750000000E+00  0.00000E+00  9.000E+00
      21     1     1     2   512   511 -5.289163462E+00  3.388119278E+01 -1.884444201E+01  3.912829499E+01  5.331201500E-07  0.00000E+00  9.000E+00
</event>
<event>
     13  10001  1.00000E+00  5.71157E+01 -1.00000E+00  1.38750E-01
      21    -1     0     0   502   503  0.000000000E+00  0.000000000E+00  4.517316867E+02  4.517316867E+02  0.000000000E+00  0.00000E+00  9.000E+00
      21    -1     0     0   513   504  0.000000000E+00  0.000000000E+00 -3.718451769E+02  3.718451769E+02  0.000000000E+00  0.00000E+00  9.000E+00
       6     2     1     2   502     0  5.100681060E+00  1.246479715E+02  3.059701002E+02  3.725115246E+02  1.720000000E+02  0.00000E+00  9.000E+00
      -6     2     1     2     0   504 -2.289073415E+01 -1.789223962E+02 -3.507136642E+01  2.516966633E+02  1.720000000E+02  0.00000E+00  9.000E+00
      24     2     3     3     0     0  1.808029189E+01  1.357917169E+02  3.145722813E+02  3.527830329E+02  8.206010487E+01  0.00000E+00  9.000E+00
     -24     2     4     4     0     0 -4.069534213E+00 -1.974595114E+02 -5.217119930E+01  2.198716889E+02  8.133207104E+01  0.00000E+00  9.000E+00
     -11     1     5     5     0     0  2.862169618E+01  1.351985509E+01  1.076134408E+02  1.121723701E+02  3.015782986E-06  0.00000E+00  9.000E+00
      12     1     5     5     0     0 -1.054140429E+01  1.222718618E+02  2.069588406E+02  2.406106629E+02  4.672030912E-06  0.00000E+00  9.000E+00
      13     1     6     6     0     0 -2.903750090E+01 -3.164012438E+01 -2.586411923E+01  5.013209144E+01  1.118282261E-06  0.00000E+00  9.000E+00
     -14     1     6     6     0     0  2.496796668E+01 -1.658193871E+02 -2.630708008E+01  1.697395975E+02  4.573661350E-06  0.00000E+00  9.000E+00
       5     1     3     3   502     0 -1.297961083E+01 -1.114374545E+01 -8.602181189E+00  1.972849161E+01  4.750000000E+00  0.00000E+00  9.000E+00
      -5     1     4     4     0   504 -1.882119993E+01  1.853711527E+01  1.709983288E+01  3.182497437E+01  4.750000000E+00  0.00000E+00  9.000E+00
      21     1     1     2   513   503  1.779005309E+01  5.427442471E+01 -1.910122240E+02  1.993686758E+02  2.697398305E-06  0.00000E+00  9.000E+00
</event>
<event>
     13  10001  1.00000E+00  1.11785E+01 -1.00000E+00  1.96184E-01
      21    -1     0     0   511   504  0.000000000E+00  0.000000000E+00  1.909503426E+02  1.909503426E+02  0.000000000E+00  0.00000E+00  9.000E+00
      21    -1     0     0   502   503  0.000000000E+00  0.000000000E+00 -3.538468824E+02  3.538468824E+02  0.000000000E+00  0.00000E+00  9.000E+00
       6     2     1     2   502     0  4.082165394E+01 -1.122625690E+02 -2.343830460E+02  3.143067039E+02  1.720000000E+02  0.00000E+00  9.000E+00
      -6     2     1     2     0   504 -4.983683468E+01  1.056531100E+02  6.703326155E+01  2.184576570E+02  1.720000000E+02  0.00000E+00  9.000E+00
      24     2     3     3     0     0 -2.565237301E+01 -1.122110135E+02 -1.344092476E+02  1.941562907E+02  7.988406339E+01  0.00000E+00  9.000E+00
     -24     2     4     4     0     0  2.870152268E+01  8.898873430E+01  6.283359344E+01  1.379208660E+02  7.956967121E+01  0.00000E+00  9.000E+00
     -11     1     5     5     0     0  3.111314326E+00 -9.888611178E+01 -6.648516875E+01  1.191990816E+02  2.132480600E-06  0.00000E+00  9.000E+00
      12     1     5     5     0     0 -2.876368733E+01 -1.332490173E+01 -6.792407886E+01  7.495720915E+01  1.907348633E-06  0.00000E+00  9.000E+00
      13     1     6     6     0     0  2.085409346E+01  7.269815080E+01  3.300318570E+00  7.570209011E+01  1.174075341E-06  0.00000E+00  9.000E+00
     -14     1     6     6     0     0  7.847429214E+00  1.629058349E+01  5.953327487E+01  6.221877588E+01  6.743495762E-07  0.00000E+00  9.000E+00
       5     1     3     3   502     0  6.647402695E+01 -5.155553135E-02 -9.997379839E+01  1.201504132E+02  4.750000000E+00  0.00000E+00  9.000E+00
      -5     1     4     4     0   504 -7.853835736E+01  1.666437575E+01  4.199668111E+00  8.053679102E+01  4.750000000E+00  0.00000E+00  9.000E+00
      21     1     1     2   511   503  9.015180736E+00  6.609458992E+00  4.453244655E+00  1.203286416E+01  2.731427965E-07  0.00000E+00  9.000E+00
</event>
<event>
     13  10001  1.00000E+00  4.62924E+01 -1.00000E+00  1.44138E-01
      21    -1     0     0   513   512  0.000000000E+00  0.000000000E+00  4.694329353E+02  4.694329353E+02  0.000000000E+00  0.00000E+00  9.000E+00
       2    -1     0     0   502     0  0.000000000E+00  0.000000000E+00 -2.841833597E+02  2.841833597E+02  0.000000000E+00  0.00000E+00  9.000E+00
       6     2     1     2   502     0 -7.292846397E+01  5.218049631E+01 -1.998932026E+02  2.785366358E+02  1.720000000E+02  0.00000E+00  9.000E+00
      -6     2     1     2     0   512  1.079184363E+02 -8.249040802E+01  3.623583797E+02  4.234839449E+02  1.720000000E+02  0.00000E+00  9.000E+00
      24     2     3     3     0     0 -1.142212319E+02  4.272100761E+01 -1.785976420E+02  2.308854238E+02  8.086647553E+01  0.00000E+00  9.000E+00
     -24     2     4     4     0     0  4.892164116E+01 -5.409475877E+01  8.229880453E+01  1.358333533E+02  7.973729835E+01  0.00000E+00  9.000E+00
     -11     1     5     5     0     0 -8.536404615E+01  6.058078667E+01 -1.625686394E+02  1.933535999E+02  4.264961200E-06  0.00000E+00  9.000E+00
      12     1     5     5     0     0 -2.885718575E+01 -1.785977906E+01 -1.602900268E+01  3.753182389E+01  5.840038640E-07  0.00000E+00  9.000E+00
      13     1     6     6     0     0  1.470579268E+01  1.831636302E+01  3.698781336E+01  4.381606817E+01  1.261592536E-06  0.00000E+00  9.000E+00
     -14     1     6     6     0     0  3.421584849E+01 -7.241112179E+01  4.531099116E+01  9.201728515E+01  1.651812370E-06  0.00000E+00  9.000E+00
       5     1     3     3   502     0  4.129276794E+01  9.459488706E+00 -2.129556059E+01  4.765121207E+01  4.750000000E+00  0.00000E+00  9.000E+00
      -5     1     4     4     0   512  5.899679516E+01 -2.839564925E+01  2.800595751E+02  2.876505916E+02  4.750000000E+00  0.00000E+00  9.000E+00
       2     1     1     2   513     0 -3.498997235E+01  3.030991171E+01  2.278439860E+01  5.159571428E+01  7.539457465E-07  0.00000E+00  9.000E+00
</event>
<event>
     13  10001  1.00000E+00  1.87382E+01 -1.00000E+00  1.73285E-01
      21    -1     0     0   502   511  0.000000000E+00  0.000000000E+00  8.094402427E+02  8.094402427E+02  0.000000000E+00  0.00000E+00  9.000E+00
      21    -1     0     0   503   504  0.000000000E+00  0.000000000E+00 -1.083833014E+02  1.083833014E+02  0.000000000E+00  0.00000E+00  9.000E+00
       6     2     1     2   502     0 -2.676311560E+01  3.152077593E+01 -1.837080637E+00  1.769101425E+02  1.720000000E+02  0.00000E+00  9.000E+00
      -6     2     1     2     0   504  4.027095236E+01 -4.450760453E+01  4.251196255E+02  4.625076999E+02  1.720000000E+02  0.00000E+00  9.000E+00
      24     2     3     3     0     0  3.244024667E+01  2.302769511E+01 -4.725940728E+01  1.016577620E+02  8.073539897E+01  0.00000E+00  9.000E+00
     -24     2     4     4     0     0  6.618676810E+00 -5.100671603E+01  4.165218727E+02  4.268538368E+02  7.789888080E+01  0.00000E+00  9.000E+00
     -11     1     5     5     0     0 -2.064209849E+01 -1.423619377E+01 -1.503356870E+01  2.923651195E+01  1.203954809E-06  0.00000E+00  9.000E+00
      12     1     5     5     0     0  5.308234516E+01  3.726388888E+01 -3.222583858E+01  7.242125002E+01  2.023048729E-06  0.00000E+00  9.000E+00
      13     1     6     6     0     0 -2.533109380E+01 -5.497711032E+01  2.944530904E+02  3.006106609E+02  3.814697266E-06  0.00000E+00  9.000E+00
     -14     1     6     6     0     0  3.194977061E+01  3.970394292E+00  1.220687823E+02  1.262431760E+02  2.697398305E-06  0.00000E+00  9.000E+00
       5     1     3     3   502     0 -5.920336227E+01  8.493080816E+00  4.542232664E+01  7.525238058E+01  4.750000000E+00  0.00000E+00  9.000E+00
      -5     1     4     4     0   504  3.365227555E+01  6.499111500E+00  8.597752877E+00  3.565386311E+01  4.750000000E+00  0.00000E+00  9.000E+00
      21     1     1     2   503   511 -1.350783676E+01  1.298682860E+01  2.777743964E+02  2.784057016E+02  3.814697266E-06  0.00000E+00  9.000E+00
</event>
<event>
     13  10001  1.00000E+00  7.42614E+00 -1.00000E+00  2.19354E-01
      -2    -1     0     0     0   513  0.000000000E+00  0.000000000E+00  3.947729822E+01  3.947729822E+01  0.000000000E+00  0.00000E+00  9.000E+00
       2    -1     0     0   502     0  0.000000000E+00  0.000000000E+00 -1.170116203E+03  1.170116203E+03  0.000000000E+00  0.00000E+00  9.000E+00
       6     2     1     2   502     0 -1.961448798E+01  6.165560801E+01 -2.755728391E+02  3.312258018E+02  1.720000000E+02  0.00000E+00  9.000E+00
      -6     2     1     2     0   512  2.653396973E+01 -6.435158305E+01 -8.481850908E+02  8.682437020E+02  1.720000000E+02  0.00000E+00  9.000E+00
      24     2     3     3     0     0 -4.045271156E+01  5.501865985E+01 -7.815090365E+01  1.325394567E+02  8.243584799E+01  0.00000E+00  9.000E+00
     -24     2     4     4     0     0  3.755840270E+01 -2.285740099E+01 -2.304262178E+02  2.489764794E+02  8.342632119E+01  0.00000E+00  9.000E+00
     -11     1     5     5     0     0  1.700136858E+01  2.100300009E+01 -5.602374510E+01  6.219994020E+01  9.536743164E-07  0.00000E+00  9.000E+00
      12     1     5     5     0     0 -5.745408014E+01  3.401565976E+01 -2.212715856E+01  7.033951649E+01  3.006343892E-06  0.00000E+00  9.000E+00
      13     1     6     6     0     0 -1.661604560E+01 -2.703294012E+01 -1.394071439E+02  1.429728107E+02  0.000000000E+00  0.00000E+00  9.000E+00
     -14     1     6     6     0     0  5.417444829E+01  4.175539135E+00 -9.101907388E+01  1.060036687E+02  2.697398305E-06  0.00000E+00  9.000E+00
       5     1     3     3   502     0  2.083822358E+01  6.636948156E+00 -1.974219354E+02  1.986863451E+02  4.750000000E+00  0.00000E+00  9.000E+00
      -5     1     4     4     0   512 -1.102443297E+01 -4.149418206E+01 -6.177588730E+02  6.192672225E+02  4.750000000E+00  0.00000E+00  9.000E+00
      21     1     1     2   512   513 -6.919481743E+00  2.695975038E+00 -6.880974985E+00  1.012399752E+01  2.528810911E-07  0.00000E+00  9.000E+00
</event>
<event>
     13  10001  1.00000E+00  8.56208E+01 -1.00000E+00  1.29452E-01
       2    -1     0     0   502     0  0.000000000E+00  0.000000000E+00  2.631047894E+03  2.631047894E+03  0.000000000E+00  0.00000E+00  9.000E+00
      21    -1     0     0   503   504  0.000000000E+00  0.000000000E+00 -3.199083493E+02  3.199083493E+02  0.000000000E+00  0.00000E+00  9.000E+00
       6     2     1     2   502     0  1.214851504E+02  9.538871325E+01  5.569705425E+01  2.377894241E+02  1.720000000E+02  0.00000E+00  9.000E+00
      -6     2     1     2     0   504 -4.416216163E+01 -5.861815463E+01 -1.897871367E+02  2.664386267E+02  1.720000000E+02  0.00000E+00  9.000E+00
      24     2     3     3     0     0  4.571893636E+00  5.354118637E+01  6.018446155E+01  1.134406226E+02  7.974361795E+01  0.00000E+00  9.000E+00
     -24     2     4     4     0     0 -8.358979412E+01 -7.884318818E+01 -1.128279474E+02  1.775068018E+02  7.466603609E+01  0.00000E+00  9.000E+00
     -11     1     5     5     0     0  1.036188705E+01  5.637529547E+01  7.667670349E+01  9.573327269E+01  2.697398305E-06  0.00000E+00  9.000E+00
      12     1     5     5     0     0 -5.789993412E+00 -2.834109096E+00 -1.649224194E+01  1.770734995E+01  5.331201500E-07  0.00000E+00  9.000E+00
      13     1     6     6     0     0 -6.155732340E+01 -8.140561635E+01 -1.166544414E+02  1.549981843E+02  2.697398305E-06  0.00000E+00  9.000E+00
     -14     1     6     6     0     0 -2.203247072E+01  2.562428170E+00  3.826493960E+00  2.250861747E+01  3.601028315E-07  0.00000E+00  9.000E+00
       5     1     3     3   502     0  1.169132567E+02  4.184752688E+01 -4.487407300E+00  1.243488015E+02  4.750000000E+00  0.00000E+00  9.000E+00
      -5     1     4     4     0   504  3.942763249E+01  2.022503355E+01 -7.695918925E+01  8.893182499E+01  4.750000000E+00  0.00000E+00  9.000E+00
       2     1     1     2   503     0 -7.732298875E+01 -3.677055862E+01  2.445229627E+03  2.446728192E+03  0.000000000E+00  0.00000E+00  9.000E+00
</event>
<event>
     13  10001  1.00000E+00  1.06476E+02 -1.00000E+00  1.24954E-01
       2    -1     0     0   503     0  0.000000000E+00  0.000000000E+00  9.124448964E+02  9.124448964E+02  0.000000000E+00  0.00000E+00  9.000E+00
      21    -1     0     0   502   503  0.000000000E+00  0.000000000E+00 -1.951645318E+02  1.951645318E+02  0.000000000E+00  0.00000E+00  9.000E+00
       6     2     1     2   502     0  1.258525395E+02 -2.579186037E+01 -8.939014148E+01  2.325482297E+02  1.720000000E+02  0.00000E+00  9.000E+00
      -6     2     1     2     0   504 -3.189139916E+01 -2.429304949E+01  2.372329448E+02  2.957544314E+02  1.720000000E+02  0.00000E+00  9.000E+00
      24     2     3     3     0     0  3.722535966E+01  1.527508009E+01 -9.936716744E+01  1.342457672E+02  8.080245393E+01  0.00000E+00  9.000E+00
     -24     2     4     4     0     0 -6.842066846E+01 -6.086253393E+01  1.166519870E+02  1.644759313E+02  7.112671789E+01  0.00000E+00  9.000E+00
     -11     1     5     5     0     0  1.904234092E+01 -3.296131335E+01 -5.026981781E+01  6.305643114E+01  1.168007728E-06  0.00000E+00  9.000E+00
      12     1     5     5     0     0  1.818301874E+01  4.823639344E+01 -4.909734962E+01  7.118933602E+01  1.651812370E-06  0.00000E+00  9.000E+00
      13     1     6     6     0     0 -3.306765272E+00 -3.533908343E+01  9.889207995E+00  3.684537894E+01  9.461944024E-07  0.00000E+00  9.000E+00
     -14     1     6     6     0     0 -6.511390318E+01 -2.552345050E+01  1.067627790E+02  1.276305524E+02  1.348699152E-06  0.00000E+00  9.000E+00
       5     1     3     3   502     0  8.862717981E+01 -4.106694046E+01  9.977025954E+00  9.830246256E+01  4.750000000E+00  0.00000E+00  9.000E+00
      -5     1     4     4     0   504  3.652926930E+01  3.656948445E+01  1.205809577E+02  1.312785000E+02  4.750000000E+00  0.00000E+00  9.000E+00
       2     1     1     2   504     0 -9.396114031E+01  5.008490985E+01  5.694375614E+02  5.793067671E+02  7.629394531E-06  0.00000E+00  9.000E+00
</event>
<event>
     13  10001  1.00000E+00  1.28999E+02 -1.00000E+00  1.21252E-01
      21    -1     0     0   503   511  0.000000000E+00  0.000000000E+00  3.299470162E+02  3.299470162E+02  0.000000000E+00  0.00000E+00  9.000E+00
      21    -1     0     0   502   503  0.000000000E+00  0.000000000E+00 -8.343263615E+02  8.343263615E+02  0.000000000E+00  0.00000E+00  9.000E+00
       6     2     1     2   502     0 -1.664845242E+02 -9.023467888E+01 -1.073080864E+02  2.774138055E+02  1.720000000E+02  0.00000E+00  9.000E+00
      -6     2     1     2     0   504  1.156933553E+02  2.088135583E+02 -5.873786048E+02  6.569518095E+02  1.720000000E+02  0.00000E+00  9.000E+00
      24     2     3     3     0     0 -1.858425546E+02 -5.867867514E+01 -6.412721375E+01  2.203378475E+02  8.034815181E+01  0.00000E+00  9.000E+00
     -24     2     4     4     0     0  4.150974043E+01  1.976194303E+02 -4.004353052E+02  4.554601794E+02  7.949241234E+01  0.00000E+00  9.000E+00
     -11     1     5     5     0     0 -1.196112284E+02 -5.773394499E+01 -7.603130474E+01  1.530386019E+02  3.015782986E-06  0.00000E+00  9.000E+00
      12     1     5     5     0     0 -6.623132618E+01 -9.447301451E-01  1.190409099E+01  6.729924565E+01  8.259061849E-07  0.00000E+00  9.000E+00
      13     1     6     6     0     0  5.541901527E+01  1.674324399E+02 -3.721130175E+02  4.117924076E+02  1.078959322E-05  0.00000E+00  9.000E+00
     -14     1     6     6     0     0 -1.390927484E+01  3.018699035E+01 -2.832228771E+01  4.366777180E+01  2.261837239E-06  0.00000E+00  9.000E+00
       5     1     3     3   502     0  1.935803040E+01 -3.155600375E+01 -4.318087268E+01  5.707595797E+01  4.750000000E+00  0.00000E+00  9.000E+00
      -5     1     4     4     0   504  7.418361484E+01  1.119412805E+01 -1.869432996E+02  2.014916300E+02  4.750000000E+00  0.00000E+00  9.000E+00
      21     1     1     2   504   511  5.079116889E+01 -1.185788794E+02  1.903073459E+02  2.299077628E+02  0.000000000E+00  0.00000E+00  9.000E+00
</event>
<event>
     13  10001  1.00000E+00  2.20399E+02 -1.00000E+00  1.12009E-01
       2    -1     0     0   502     0  0.000000000E+00  0.000000000E+00  6.627164393E+02  6.627164393E+02  0.000000000E+00  0.00000E+00  9.000E+00
      21    -1     0     0   513   512  0.000000000E+00  0.000000000E+00 -2.279593959E+02  2.279593959E+02  0.000000000E+00  0.00000E+00  9.000E+00
       6     2     1     2   502     0 -1.740389441E+02  2.043249504E+01 -3.939830462E+01  2.486830660E+02  1.720000000E+02  0.00000E+00  9.000E+00
      -6     2     1     2     0   512 -4.416475262E+01 -5.145963830E+01  1.065804675E+02  2.134057539E+02  1.720000000E+02  0.00000E+00  9.000E+00
      24     2     3     3     0     0 -4.483412797E+01  5.545679444E+01 -4.272941049E+01  1.146896153E+02  7.900854553E+01  0.00000E+00  9.000E+00
     -24     2     4     4     0     0 -4.130560095E+01 -4.590300233E+01  1.436416885E+02  1.755224126E+02  7.976179759E+01  0.00000E+00  9.000E+00
     -11     1     5     5     0     0 -5.483660959E+01  6.223260594E+01 -1.479509606E+01  8.425464889E+01  9.684608465E-07  0.00000E+00  9.000E+00
      12     1     5     5     0     0  1.000248162E+01 -6.775811497E+00 -2.793431443E+01  3.043496645E+01  8.259061849E-07  0.00000E+00  9.000E+00
      13     1     6     6     0     0  2.350121143E+01 -1.618151916E+01  3.029423610E+01  4.161597340E+01  1.261592536E-06  0.00000E+00  9.000E+00
     -14     1     6     6     0     0 -6.480681238E+01 -2.972148317E+01  1.133474524E+02  1.339064392E+02  3.303624740E-06  0.00000E+00  9.000E+00
       5     1     3     3   502     0 -1.292048161E+02 -3.502429940E+01  3.331105863E+00  1.339934506E+02  4.750000000E+00  0.00000E+00  9.000E+00
      -5     1     4     4     0   512 -2.859151662E+00 -5.556635964E+00 -3.706122096E+01  3.788334133E+01  4.750000000E+00  0.00000E+00  9.000E+00
       2     1     1     2   513     0  2.182036967E+02  3.102714326E+01  3.675748805E+02  4.285870152E+02  7.629394531E-06  0.00000E+00  9.000E+00
</event>
<event>
     13  10001  1.00000E+00  8.26999E+00 -1.00000E+00  2.12719E-01
       1    -1     0     0   502     0  0.000000000E+00  0.000000000E+00  3.392379295E+02  3.392379295E+02  0.000000000E+00  0.00000E+00  9.000E+00
      -1    -1     0     0     0   511  0.000000000E+00  0.000000000E+00 -2.698432240E+02  2.698432240E+02  0.000000000E+00  0.00000E+00  9.000E+00
       6     2     1     2   502     0  5.773785814E+01 -2.744401514E+01 -1.727072668E+02  2.519893534E+02  1.720000000E+02  0.00000E+00  9.000E+00
      -6     2     1     2     0   512 -6.254776033E+01  2.071663763E+01  2.706451488E+02  3.273747058E+02  1.720000000E+02  0.00000E+00  9.000E+00
      24     2     3     3     0     0  6.220618922E+01  4.559794156E+01 -1.076204172E+02  1.539385813E+02  7.852483914E+01  0.00000E+00  9.000E+00
     -24     2     4     4     0     0 -3.246090806E+01 -4.075238562E+01  7.912857639E+01  1.239421137E+02  7.991150394E+01  0.00000E+00  9.000E+00
     -11     1     5     5     0     0  6.617663046E+01  4.466664018E+01 -1.181783407E+02  1.426203891E+02  3.015782986E-06  0.00000E+00  9.000E+00
      12     1     5     5     0     0 -3.970441245E+00  9.313013851E-01  1.055792353E+01  1.131819222E+01  3.576278687E-07  0.00000E+00  9.000E+00
      13     1     6     6     0     0  1.951785255E+01 -9.029248518E+00  5.389369406E+01  5.802589212E+01  6.743495762E-07  0.00000E+00  9.000E+00
     -14     1     6     6     0     0 -5.197876061E+01 -3.172313710E+01  2.523488233E+01  6.591622158E+01  4.768371582E-07  0.00000E+00  9.000E+00
       5     1     3     3   502     0 -4.468331073E+00 -7.304195671E+01 -6.508684965E+01  9.805077215E+01  4.750000000E+00  0.00000E+00  9.000E+00
      -5     1     4     4     0   512 -3.008685228E+01  6.146902324E+01  1.915165724E+02  2.034325921E+02  4.750000000E+00  0.00000E+00  9.000E+00
      21     1     1     2   512   511  4.809902191E+00  6.727377517E+00 -2.854317655E+01  2.971709432E+01  5.840038640E-07  0.00000E+00  9.000E+00
</event>
<event>
     13  10001  1.00000E+00  8.17856E+00 -1.00000E+00  2.13385E-01
      21    -1     0     0   502   503  0.000000000E+00  0.000000000E+00  2.011178271E+02  2.011178271E+02  0.000000000E+00  0.00000E+00  9.000E+00
      21    -1     0     0   503   513  0.000000000E+00  0.000000000E+00 -2.401534869E+02  2.401534869E+02  0.000000000E+00  0.00000E+00  9.000E+00
       6     2     1     2   502     0 -7.604391915E+00 -3.756131676E+01 -6.109978087E+01  1.865096848E+02  1.720000000E+02  0.00000E+00  9.000E+00
      -6     2     1     2     0   504  1.162104107E+01  4.468559829E+01  8.072667453E+01  1.955317040E+02  1.720000000E+02  0.00000E+00  9.000E+00
      24     2     3     3     0     0 -7.348694721E+00 -6.066361612E+01 -1.001445754E+02  1.408934586E+02  7.802533596E+01  0.00000E+00  9.000E+00
     -24     2     4     4     0     0  2.579730919E+01  7.712251194E+01  8.173906117E+00  1.146639932E+02  8.042161145E+01  0.00000E+00  9.000E+00
     -11     1     5     5     0     0  2.372270332E-01 -2.552476968E+00 -7.831296693E+01  7.835491181E+01  1.651812370E-06  0.00000E+00  9.000E+00
      12     1     5     5     0     0 -7.585921754E+00 -5.811113915E+01 -2.183160845E+01  6.253854675E+01  1.719260824E-06  0.00000E+00  9.000E+00
      13     1     6     6     0     0  4.479167171E+01  6.477055810E+01  2.897021717E+01  8.390943055E+01  1.617033478E-06  0.00000E+00  9.000E+00
     -14     1     6     6     0     0 -1.899436252E+01  1.235195383E+01 -2.079631105E+01  3.075456266E+01  7.152557373E-07  0.00000E+00  9.000E+00
       5     1     3     3   502     0 -2.556971941E-01  2.310229936E+01  3.904479451E+01  4.561622622E+01  4.750000000E+00  0.00000E+00  9.000E+00
      -5     1     4     4     0   504 -1.417626813E+01 -3.243691365E+01  7.255276841E+01  8.086771080E+01  4.750000000E+00  0.00000E+00  9.000E+00
      21     1     1     2   504   513 -4.016649150E+00 -7.124281527E+00 -5.866255351E+01  5.922992523E+01  0.000000000E+00  0.00000E+00  9.000E+00
</event>
<event>
     13  10001  1.00000E+00  2.07956E+01 -1.00000E+00  1.69320E-01
      21    -1     0     0   502   511  0.000000000E+00  0.000000000E+00  1.168722120E+02  1.168722120E+02  0.000000000E+00  0.00000E+00  9.000E+00
      21    -1     0     0   503   504  0.000000000E+00  0.000000000E+00 -2.472716704E+03  2.472716704E+03  0.000000000E+00  0.00000E+00  9.000E+00
       6     2     1     2   502     0  2.217697722E+02  4.040124860E+01 -1.009961492E+02  3.009955397E+02  1.720000000E+02  0.00000E+00  9.000E+00
      -6     2     1     2     0   504 -2.423711168E+02 -3.756518522E+01 -2.246172700E+03  2.266060613E+03  1.720000000E+02  0.00000E+00  9.000E+00
      24     2     3     3     0     0  1.337194009E+02  8.456786751E+01 -3.184116739E+01  1.805441714E+02  8.093043612E+01  0.00000E+00  9.000E+00
     -24     2     4     4     0     0 -1.231194994E+02  3.008546880E+01 -1.487447428E+03  1.495032623E+03  8.098856215E+01  0.00000E+00  9.000E+00
     -11     1     5     5     0     0 -1.585657411E+00  2.999490079E+01  4.022132498E+00  3.030488298E+01  1.859244580E-06  0.00000E+00  9.000E+00
      12     1     5     5     0     0  1.353050583E+02  5.457296672E+01 -3.586329988E+01  1.502392884E+02  5.993750138E-06  0.00000E+00  9.000E+00
      13     1     6     6     0     0 -4.673019276E+01  4.477388354E+01 -4.442910604E+02  4.489799081E+02  1.206313194E-05  0.00000E+00  9.000E+00
     -14     1     6     6     0     0 -7.638930663E+01 -1.468841474E+01 -1.043156367E+03  1.046052715E+03  1.525878906E-05  0.00000E+00  9.000E+00
       5     1     3     3   502     0  8.805037133E+01 -4.416661891E+01 -6.915498182E+01  1.204513683E+02  4.750000000E+00  0.00000E+00  9.000E+00
      -5     1     4     4     0   504 -1.192516175E+02 -6.765065402E+01 -7.587252723E+02  7.710279895E+02  4.750000000E+00  0.00000E+00  9.000E+00
      21     1     1     2   503   511  2.060134460E+01 -2.836063378E+00 -8.675642486E+00  2.253276342E+01  3.576278687E-07  0.00000E+00  9.000E+00
</event>
<event>
     13  10001  1.00000E+00  7.12488E+01 -1.00000E+00  1.33509E-01
      21    -1     0     0   503   512  0.000000000E+00  0.000000000E+00  3.656282656E+02  3.656282656E+02  0.000000000E+00  0.00000E+00  9.000E+00
      21    -1     0     0   502   503  0.000000000E+00  0.000000000E+00 -5.019191914E+02  5.019191914E+02  0.000000000E+00  0.00000E+00  9.000E+00
       6     2     1     2   502     0 -8.669376851E-01 -6.353916528E+01 -3.766240709E+02  4.188886104E+02  1.720000000E+02  0.00000E+00  9.000E+00
      -6     2     1     2     0   504  1.310794711E+01 -6.650254173E+00 -2.454716050E+01  1.743634344E+02  1.720000000E+02  0.00000E+00  9.000E+00
      24     2     3     3     0     0  2.074516257E+01 -7.292604405E+01 -5.096315368E+01  9.234184207E+01  1.346116981E+01  0.00000E+00  9.000E+00
     -24     2     4     4     0     0 -1.811443052E+01 -4.561945602E+01 -6.796150712E+01  1.080248819E+02  6.812739016E+01  0.00000E+00  9.000E+00
     -11     1     5     5     0     0 -7.164342223E-01 -5.204303646E+00 -7.165140313E+00  8.884666012E+00  2.920019320E-07  0.00000E+00  9.000E+00
      12     1     5     5     0     0  2.146159679E+01 -6.772174041E+01 -4.379801336E+01  8.345717606E+01  1.066240300E-06  0.00000E+00  9.000E+00
      13     1     6     6     0     0  1.023614779E+01 -4.117580630E-02  9.378816270E+00  1.388317729E+01  6.307962682E-07  0.00000E+00  9.000E+00
     -14     1     6     6     0     0 -2.835057831E+01 -4.557828021E+01 -7.734032339E+01  9.414170457E+01  1.348699152E-06  0.00000E+00  9.000E+00
       5     1     3     3   502     0 -2.161210026E+01  9.386878778E+00 -3.256609172E+02  3.265467683E+02  4.750000000E+00  0.00000E+00  9.000E+00
      -5     1     4     4     0   504  3.122237763E+01  3.896920184E+01  4.341434662E+01  6.633855252E+01  4.750000000E+00  0.00000E+00  9.000E+00
      21     1     1     2   504   512 -1.224100943E+01  7.018941945E+01  2.648803055E+02  2.742954123E+02  5.394796609E-06  0.00000E+00  9.000E+00
</event>
<event>
     13  10001  1.00000E+00  2.75785E+01 -1.00000E+00  1.59461E-01
      21    -1     0     0   511   504  0.000000000E+00  0.000000000E+00  2.908497721E+02  2.908497721E+02  0.000000000E+00  0.00000E+00  9.000E+00
      21    -1     0     0   502   503  0.000000000E+00  0.000000000E+00 -1.980230446E+02  1.980230446E+02  0.000000000E+00  0.00000E+00  9.000E+00
       6     2     1     2   502     0  2.893521416E+01 -8.120654068E+01  2.222927391E+01  1.936747002E+02  1.720000000E+02  0.00000E+00  9.000E+00
      -6     2     1     2     0   504 -5.153120774E+01  9.701779841E+01 -1.561259338E+01  2.046843219E+02  1.720000000E+02  0.00000E+00  9.000E+00
      24     2     3     3     0     0  6.036268940E+01 -1.015997488E+02 -1.211741977E+01  1.426273985E+02  7.892768662E+01  0.00000E+00  9.000E+00
     -24     2     4     4     0     0  1.704861988E+01  1.077990130E+02 -8.048747992E+00  1.346900250E+02  7.851966541E+01  0.00000E+00  9.000E+00
     -11     1     5     5     0     0  1.331816449E+01  7.368790641E+00 -1.826812502E+01  2.377807756E+01  4.129530925E-07  0.00000E+00  9.000E+00
      12     1     5     5     0     0  4.704452492E+01 -1.089685395E+02  6.150705251E+00  1.188493210E+02  1.423041390E-06  0.00000E+00  9.000E+00
      13     1     6     6     0     0  4.555602434E+01  4.621680598E+01 -1.459091084E+01  6.651495462E+01  4.768371582E-07  0.00000E+00  9.000E+00
     -14     1     6     6     0     0 -2.850740447E+01  6.158220701E+01  6.542162853E+00  6.817507041E+01  3.371747881E-07  0.00000E+00  9.000E+00
       5     1     3     3   502     0 -3.142747524E+01  2.039320815E+01  3.434669367E+01  5.104730164E+01  4.750000000E+00  0.00000E+00  9.000E+00
      -5     1     4     4     0   504 -6.857982762E+01 -1.078121459E+01 -7.563845384E+00  6.999429692E+01  4.750000000E+00  0.00000E+00  9.000E+00
      21     1     1     2   511   503  2.259599358E+01 -1.581125773E+01  8.621004701E+01  9.051379454E+01  9.536743164E-07  0.00000E+00  9.000E+00
</event>
<event>
     13  10001  1.00000E+00  1.10305E+02 -1.00000E+00  1.24256E-01
      21    -1     0     0   503   512  0.000000000E+00  0.000000000E+00  3.067437272E+02  3.067437272E+02  0.000000000E+00  0.00000E+00  9.000E+00
      21    -1     0     0   502   503  0.000000000E+00  0.000000000E+00 -1.956612211E+02  1.956612211E+02  0.000000000E+00  0.00000E+00  9.000E+00
       6     2     1     2   502     0 -3.099933327E+01 -4.488048591E+01  8.418523696E+01  1.991139644E+02  1.720000000E+02  0.00000E+00  9.000E+00
      -6     2     1     2     0   504  6.016523784E+00 -6.255819749E+01 -1.840637032E+01  1.840448888E+02  1.720000000E+02  0.00000E+00  9.000E+00
      24     2     3     3     0     0 -2.004041316E+01 -9.385349863E+01  3.907157108E+01  1.314659100E+02  8.091106517E+01  0.00000E+00  9.000E+00
     -24     2     4     4     0     0  5.265144126E+01 -5.737909560E+00  2.649570919E+01  9.777716662E+01  7.780265956E+01  0.00000E+00  9.000E+00
     -11     1     5     5     0     0  1.460725303E+01  5.934379605E+00  1.768144603E+01  2.369012951E+01  5.331201500E-07  0.00000E+00  9.000E+00
      12     1     5     5     0     0 -3.464766619E+01 -9.978787824E+01  2.139012505E+01  1.077757805E+02  1.092571186E-06  0.00000E+00  9.000E+00
      13     1     6     6     0     0  5.893499354E+01  5.893865914E+00 -8.991285204E+00  5.990754818E+01  2.064765462E-07  0.00000E+00  9.000E+00
     -14     1     6     6     0     0 -6.283552283E+00 -1.163177547E+01  3.548699439E+01  3.786961844E+01  9.536743164E-07  0.00000E+00  9.000E+00
       5     1     3     3   502     0 -1.095892011E+01  4.897301273E+01  4.511366588E+01  6.764805433E+01  4.750000000E+00  0.00000E+00  9.000E+00
      -5     1     4     4     0   504 -4.663491748E+01 -5.682028793E+01 -4.490207951E+01  8.626772219E+01  4.750000000E+00  0.00000E+00  9.000E+00
      21     1     1     2   504   512  2.498280949E+01  1.074386834E+02  4.530363948E+01  1.192460952E+02  1.907348633E-06  0.00000E+00  9.000E+00
</event>
<event>
     13  10001  1.00000E+00  6.94887E+01 -1.00000E+00  1.34081E-01
      21    -1     0     0   503   504  0.000000000E+00  0.000000000E+00  7.154644875E+01  7.154644875E+01  0.000000000E+00  0.00000E+00  9.000E+00
      21    -1     0     0   502   511  0.000000000E+00  0.000000000E+00 -8.570037540E+02  8.570037540E+02  0.000000000E+00  0.00000E+00  9.000E+00
       6     2     1     2   502     0  4.079023624E+01 -1.910278344E+01 -1.424332084E+02  2.278156680E+02  1.720000000E+02  0.00000E+00  9.000E+00
      -6     2     1     2     0   504 -8.665785322E+01 -3.309722799E+01 -3.634706971E+02  4.126741544E+02  1.720000000E+02  0.00000E+00  9.000E+00
      24     2     3     3     0     0 -1.564710182E+01 -2.860619710E+01 -1.085458512E+01  8.425040542E+01  7.692309463E+01  0.00000E+00  9.000E+00
     -24     2     4     4     0     0 -5.367734055E+01  4.307909514E+01 -1.514335958E+02  1.849180540E+02  8.078048916E+01  0.00000E+00  9.000E+00
     -11     1     5     5     0     0 -3.505079865E+01  5.990570349E+00 -2.349323909E+01  4.261898288E+01  1.215700987E-06  0.00000E+00  9.000E+00
      12     1     5     5     0     0  1.940369683E+01 -3.459676745E+01  1.263865397E+01  4.163142254E+01  8.429369702E-07  0.00000E+00  9.000E+00
      13     1     6     6     0     0 -5.990689377E+01  1.256985971E+01 -5.070053261E+01  7.948195582E+01  9.536743164E-07  0.00000E+00  9.000E+00
     -14     1     6     6     0     0  6.229553219E+00  3.050923543E+01 -1.007330631E+02  1.054360981E+02  1.348699152E-06  0.00000E+00  9.000E+00
       5     1     3     3   502     0  5.643733807E+01  9.503413655E+00 -1.315786233E+02  1.435652625E+02  4.750000000E+00  0.00000E+00  9.000E+00
      -5     1     4     4     0   504 -3.298051267E+01 -7.617632313E+01 -2.120371014E+02  2.277561004E+02  4.750000000E+00  0.00000E+00  9.000E+00
      21     1     1     2   503   511  4.586761697E+01  5.220001143E+01 -2.795533997E+02  2.880603804E+02  5.394796609E-06  0.00000E+00  9.000E+00
</event>
<event>
     13  10001  1.00000E+00  6.62336E+01 -1.00000E+00  1.35194E-01
      21    -1     0     0   512   504  0.000000000E+00  0.000000000E+00  4.499474491E+02  4.499474491E+02  0.000000000E+00  0.00000E+00  9.000E+00
      21    -1     0     0   502   503  0.000000000E+00  0.000000000E+00 -4.215003184E+02  4.215003184E+02  0.000000000E+00  0.00000E+00  9.000E+00
       6     2     1     2   502     0  6.475088884E+01  2.669925607E+02  3.104739997E+01  3.256157952E+02  1.720000000E+02  0.00000E+00  9.000E+00
      -6     2     1     2     0   504 -1.241215188E+02 -2.963528133E+02 -1.422935398E+02  3.912321470E+02  1.720000000E+02  0.00000E+00  9.000E+00
      24     2     3     3     0     0  1.055987114E+02  1.568513547E+02  3.474036347E+01  2.079899888E+02  7.936943533E+01  0.00000E+00  9.000E+00
     -24     2     4     4     0     0 -1.521499325E+02 -2.852288286E+02 -1.384842089E+02  3.604683938E+02  7.908539828E+01  0.00000E+00  9.000E+00
     -11     1     5     5     0     0  7.708462707E+01  1.291436029E+02  5.883698408E+01  1.614989183E+02  3.438521648E-06  0.00000E+00  9.000E+00
      12     1     5     5     0     0  2.851408432E+01  2.770775177E+01 -2.409662061E+01  4.649107051E+01  1.118282261E-06  0.00000E+00  9.000E+00
      13     1     6     6     0     0 -4.646460256E+00 -3.888591222E+00  8.508120764E+00  1.044503966E+01  5.057621821E-07  0.00000E+00  9.000E+00
     -14     1     6     6     0     0 -1.475034722E+02 -2.813402374E+02 -1.469923297E+02  3.500233542E+02  8.313939941E-06  0.00000E+00  9.000E+00
       5     1     3     3   502     0 -4.084782255E+01  1.101412060E+02 -3.692963499E+00  1.176258065E+02  4.750000000E+00  0.00000E+00  9.000E+00
      -5     1     4     4     0   504  2.802841367E+01 -1.112398472E+01 -3.809330921E+00  3.076375320E+01  4.750000000E+00  0.00000E+00  9.000E+00
      21     1     1     2   512   503  5.937062996E+01  2.936025261E+01  1.396932706E+02  1.545998253E+02  0.000000000E+00  0.00000E+00  9.000E+00
</event>
<event>
     13  10001  1.00000E+00  5.43407E+01 -1.00000E+00  1.39990E-01
      21    -1     0     0   502   511  0.000000000E+00  0.000000000E+00  5.517598241E+02  5.517598241E+02  0.000000000E+00  0.00000E+00  9.000E+00
      21    -1     0     0   503   504  0.000000000E+00  0.000000000E+00 -4.773218196E+02  4.773218196E+02  0.000000000E+00  0.00000E+00  9.000E+00
       6     2     1     2   502     0  7.365361835E+01  2.243975386E+02  2.806293538E+02  4.051122622E+02  1.720000000E+02  0.00000E+00  9.000E+00
      -6     2     1     2     0   504 -1.273141501E+02 -2.158264556E+02 -3.539503148E+02  4.665348616E+02  1.720000000E+02  0.00000E+00  9.000E+00
      24     2     3     3     0     0  1.010595173E+01  1.924926416E+02  2.549185179E+02  3.293505439E+02  7.957878278E+01  0.00000E+00  9.000E+00
     -24     2     4     4     0     0 -7.099537741E+01 -3.611990842E+01 -1.065067032E+02  1.555410503E+02  8.064954497E+01  0.00000E+00  9.000E+00
     -11     1     5     5     0     0  3.009742308E+01  1.028311272E+02  8.729200991E+01  1.382027156E+02  9.536743164E-07  0.00000E+00  9.000E+00
      12     1     5     5     0     0 -1.999147135E+01  8.966151440E+01  1.676265080E+02  1.911478283E+02  5.046370146E-06  0.00000E+00  9.000E+00
      13     1     6     6     0     0  1.605481109E+01  3.304954063E+00 -7.793742506E+00  1.814998906E+01  7.952251473E-07  0.00000E+00  9.000E+00
     -14     1     6     6     0     0 -8.705018850E+01 -3.942486249E+01 -9.871296071E+01  1.373910613E+02  1.348699152E-06  0.00000E+00  9.000E+00
       5     1     3     3   502     0  6.354766662E+01  3.190489691E+01  2.571083590E+01  7.576171832E+01  4.750000000E+00  0.00000E+00  9.000E+00
      -5     1     4     4     0   504 -5.631877272E+01 -1.797065472E+02 -2.474436116E+02  3.109938113E+02  4.750000000E+00  0.00000E+00  9.000E+00
      21     1     1     2   503   511  5.366053178E+01 -8.571082958E+00  1.477589655E+02  1.574345198E+02  1.907348633E-06  0.00000E+00  9.000E+00
</event>
<event>
     13  10001  1.00000E+00  4.27589E+01 -1.00000E+00  1.46288E-01
      21    -1     0     0   503   512  0.000000000E+00  0.000000000E+00  2.197987852E+02  2.197987852E+02  0.000000000E+00  0.00000E+00  9.000E+00
      21    -1     0     0   502   503  0.000000000E+00  0.000000000E+00 -3.634294567E+02  3.634294567E+02  0.000000000E+00  0.00000E+00  9.000E+00
       6     2     1     2   502     0  1.196414530E+01  1.126248326E+02  3.885588271E+01  2.095740282E+02  1.720000000E+02  0.00000E+00  9.000E+00
      -6     2     1     2     0   504 -8.603457917E+00 -1.552515002E+02 -2.178620902E+02  3.181586682E+02  1.720000000E+02  0.00000E+00  9.000E+00
      24     2     3     3     0     0 -4.184192231E+01  4.231406871E+01  6.279195697E+01  1.177361571E+02  7.986079104E+01  0.00000E+00  9.000E+00
     -24     2     4     4     0     0  1.091643914E+01 -1.032067245E+02 -4.930031084E+01  1.406049552E+02  8.104588904E+01  0.00000E+00  9.000E+00
     -11     1     5     5     0     0 -1.522400240E+00  4.836732592E+01  7.395155397E+00  4.895308205E+01  1.971463610E-06  0.00000E+00  9.000E+00
      12     1     5     5     0     0 -4.031952207E+01 -6.053257210E+00  5.539680157E+01  6.878307501E+01  2.336015456E-06  0.00000E+00  9.000E+00
      13     1     6     6     0     0 -2.831661098E+01 -6.917822480E+01 -9.869790283E+00  7.539807692E+01  1.690083370E-06  0.00000E+00  9.000E+00
     -14     1     6     6     0     0  3.923305013E+01 -3.402849975E+01 -3.943052056E+01  6.520687823E+01  1.507891493E-06  0.00000E+00  9.000E+00
       5     1     3     3   502     0  5.380606762E+01  7.031076390E+01 -2.393607426E+01  9.183787118E+01  4.750000000E+00  0.00000E+00  9.000E+00
      -5     1     4     4     0   504 -1.951989706E+01 -5.204477569E+01 -1.685617794E+02  1.775537131E+02  4.750000000E+00  0.00000E+00  9.000E+00
      21     1     1     2   504   512 -3.360687387E+00  4.262666762E+01  3.537553598E+01  5.549554539E+01  8.259061849E-07  0.00000E+00  9.000E+00
</event>
<event>
     13  10001  1.00000E+00  1.22755E+02 -1.00000E+00  1.22188E-01
      21    -1     0     0   511   504  0.000000000E+00  0.000000000E+00  4.232602550E+02  4.232602550E+02  0.000000000E+00  0.00000E+00  9.000E+00
      21    -1     0     0   502   503  0.000000000E+00  0.000000000E+00 -3.052097950E+02  3.052097950E+02  0.000000000E+00  0.00000E+00  9.000E+00
       6     2     1     2   502     0  6.663505787E-02  4.407786258E+01 -1.064693835E+02  2.070328284E+02  1.720000000E+02  0.00000E+00  9.000E+00
      -6     2     1     2     0   504 -1.064022261E+02  1.725427210E+01 -5.991514889E+01  2.116434943E+02  1.720000000E+02  0.00000E+00  9.000E+00
      24     2     3     3     0     0 -6.080369063E+01  3.389667041E+00 -8.009744603E+01  1.290663780E+02  8.083285486E+01  0.00000E+00  9.000E+00
     -24     2     4     4     0     0 -5.306036836E+01  3.426855356E+01 -1.003307836E+02  1.424277043E+02  7.892812149E+01  0.00000E+00  9.000E+00
     -11     1     5     5     0     0  1.045666416E+01  1.924634901E+01 -1.741904908E+00  2.197266502E+01  3.237360862E-07  0.00000E+00  9.000E+00
      12     1     5     5     0     0 -7.126035479E+01 -1.585668196E+01 -7.835554112E+01  1.070937129E+02  2.336015456E-06  0.00000E+00  9.000E+00
      13     1     6     6     0     0 -3.940358078E+01  5.712092418E+01 -5.013587800E+01  8.560986171E+01  1.507891493E-06  0.00000E+00  9.000E+00
     -14     1     6     6     0     0 -1.365678757E+01 -2.285237062E+01 -5.019490560E+01  5.681784260E+01  9.536743164E-07  0.00000E+00  9.000E+00
       5     1     3     3   502     0  6.087032568E+01  4.068819554E+01 -2.637193742E+01  7.796645040E+01  4.750000000E+00  0.00000E+00  9.000E+00
      -5     1     4     4     0   504 -5.334185770E+01 -1.701428146E+01  4.041563471E+01  6.921579000E+01  4.750000000E+00  0.00000E+00  9.000E+00
      21     1     1     2   511   503  1.063355910E+02 -6.133213468E+01  2.844349923E+02  3.097937274E+02  3.814697266E-06  0.00000E+00  9.000E+00
</event>
<event>
     13  10001  1.00000E+00  3.44214E+01 -1.00000E+00  1.52511E-01
      21    -1     0     0   512   503  0.000000000E+00  0.000000000E+00  2.735476799E+02  2.735476799E+02  0.000000000E+00  0.00000E+00  9.000E+00
      21    -1     0     0   503   504  0.000000000E+00  0.000000000E+00 -1.530470539E+02  1.530470539E+02  0.000000000E+00  0.00000E+00  9.000E+00
       6     2     1     2   502     0 -5.706418135E+01  1.926640708E+00  7.685771831E+01  1.968530965E+02  1.720000000E+02  0.00000E+00  9.000E+00
      -6     2     1     2     0   504  2.436692903E+01 -1.268397797E+01  2.779526228E-02  1.741798820E+02  1.720000000E+02  0.00000E+00  9.000E+00
      24     2     3     3     0     0  3.408381450E+01 -1.518271866E+01  2.356641955E+01  8.978670426E+01  7.819242146E+01  0.00000E+00  9.000E+00
     -24     2     4     4     0     0  6.161115121E+01  1.925289137E+01  4.180366645E+01  1.095665581E+02  7.804278540E+01  0.00000E+00  9.000E+00
     -11     1     5     5     0     0  2.386796398E+01 -4.474450990E+01  2.842333949E+01  5.813464628E+01  1.168007728E-06  0.00000E+00  9.000E+00
      12     1     5     5     0     0  1.021585051E+01  2.956179124E+01 -4.856919931E+00  3.165205798E+01  9.000103993E-07  0.00000E+00  9.000E+00
      13     1     6     6     0     0 -1.826123877E+01  3.202976878E+00  1.302898221E+00  1.858573233E+01  6.955826293E-07  0.00000E+00  9.000E+00
     -14     1     6     6     0     0  7.987238999E+01  1.604991449E+01  4.050076823E+01  9.098082581E+01  1.966049969E-06  0.00000E+00  9.000E+00
       5     1     3     3   502     0 -9.114799584E+01  1.710935937E+01  5.329129875E+01  1.070663922E+02  4.750000000E+00  0.00000E+00  9.000E+00
      -5     1     4     4     0   504 -3.724422218E+01 -3.193686934E+01 -4.177587119E+01  6.461332388E+01  4.750000000E+00  0.00000E+00  9.000E+00
      21     1     1     2   512   502  3.269725231E+01  1.075733726E+01  4.361511240E+01  5.556175522E+01  1.066240300E-06  0.00000E+00  9.000E+00
</event>
<event>
     13  10001  1.00000E+00  1.38565E+01 -1.00000E+00  1.85941E-01
      21    -1     0     0   503   511  0.000000000E+00  0.000000000E+00  2.095943578E+02  2.095943578E+02  0.000000000E+00  0.00000E+00  9.000E+00
      21    -1     0     0   502   503  0.000000000E+00  0.000000000E+00 -2.628173244E+02  2.628173244E+02  0.000000000E+00  0.00000E+00  9.000E+00
       6     2     1     2   502     0 -3.888876566E+00  5.577455587E+01  7.659607065E+01  1.964099857E+02  1.720000000E+02  0.00000E+00  9.000E+00
      -6     2     1     2     0   504  8.204673563E+00 -4.260732889E+01 -1.624602608E+02  2.405411347E+02  1.720000000E+02  0.00000E+00  9.000E+00
      24     2     3     3     0     0 -6.362396321E+01  5.927366072E+01  4.971672069E+01  1.306407964E+02  8.386828846E+01  0.00000E+00  9.000E+00
     -24     2     4     4     0     0  3.173677294E+01 -5.764358502E+01 -3.764449965E+01  1.125513483E+02  8.319069654E+01  0.00000E+00  9.000E+00
     -11     1     5     5     0     0 -7.032479416E+01  6.228528496E+01  6.462288677E+01  1.140225894E+02  2.132480600E-06  0.00000E+00  9.000E+00
      12     1     5     5     0     0  6.700830950E+00 -3.011624240E+00 -1.490616608E+01  1.661820698E+01  3.769728732E-07  0.00000E+00  9.000E+00
      13     1     6     6     0     0 -9.254680194E+00 -6.361035159E+01 -1.830420732E+01  6.683539437E+01  2.105655877E-06  0.00000E+00  9.000E+00
     -14     1     6     6     0     0  4.099145313E+01  5.966766566E+00 -1.934029233E+01  4.571595390E+01  5.331201500E-07  0.00000E+00  9.000E+00
       5     1     3     3   502     0  5.973508664E+01 -3.499104854E+00  2.687934995E+01  6.576918933E+01  4.750000000E+00  0.00000E+00  9.000E+00
      -5     1     4     4     0   504 -2.353209938E+01  1.503625613E+01 -1.248157612E+02  1.279897864E+02  4.750000000E+00  0.00000E+00  9.000E+00
      21     1     1     2   504   511 -4.315796997E+00 -1.316722697E+01  3.264122351E+01  3.546056179E+01  0.000000000E+00  0.00000E+00  9.000E+00
</event>
<event>
     13  10001  1.00000E+00  6.56235E+01 -1.00000E+00  1.35410E-01
      -1    -1     0     0     0   504  0.000000000E+00  0.000000000E+00  4.318734989E+02  4.318734989E+02  0.000000000E+00  0.00000E+00  9.000E+00
      21    -1     0     0   502   503  0.000000000E+00  0.000000000E+00 -5.612539685E+02  5.612539685E+02  0.000000000E+00  0.00000E+00  9.000E+00
       6     2     1     2   502     0 -1.347002265E+02  8.948691582E+01 -4.005961927E+02  4.649874931E+02  1.720000000E+02  0.00000E+00  9.000E+00
      -6     2     1     2     0   504  6.942203852E+01 -8.276381271E+01 -4.260664447E+01  2.075297431E+02  1.720000000E+02  0.00000E+00  9.000E+00
      24     2     3     3     0     0 -7.800581947E+01 -1.845358355E+01 -2.271675705E+02  2.529368937E+02  7.711371151E+01  0.00000E+00  9.000E+00
     -24     2     4     4     0     0  6.861585750E+01 -1.234716496E+02 -3.735006273E+01  1.662021244E+02  7.921322369E+01  0.00000E+00  9.000E+00
     -11     1     5     5     0     0 -1.836936579E+01 -8.964871050E-01 -1.041290060E+00  1.842068331E+01  1.061753483E-06  0.00000E+00  9.000E+00
      12     1     5     5     0     0 -5.963645369E+01 -1.755709644E+01 -2.261262804E+02  2.345162104E+02  2.697398305E-06  0.00000E+00  9.000E+00
      13     1     6     6     0     0  3.425501894E+00 -3.437253750E+01 -4.359868294E+01  5.562419034E+01  6.743495762E-07  0.00000E+00  9.000E+00
     -14     1     6     6     0     0  6.519035560E+01 -8.909911215E+01  6.248620209E+00  1.105779341E+02  8.259061849E-07  0.00000E+00  9.000E+00
       5     1     3     3   502     0 -5.669440703E+01  1.079404994E+02 -1.734286222E+02  2.120505994E+02  4.750000000E+00  0.00000E+00  9.000E+00
      -5     1     4     4     0   504  8.061810255E-01  4.070783694E+01 -5.256581739E+00  4.132761870E+01  4.750000000E+00  0.00000E+00  9.000E+00
      -1     1     1     2     0   503  6.527818798E+01 -6.723103114E+00  3.138223675E+02  3.206102311E+02  6.607249480E-06  0.00000E+00  9.000E+00
</event>
<event>
     13  10001  1.00000E+00  1.16267E+02 -1.00000E+00  1.23229E-01
      21    -1     0     0   511   504  0.000000000E+00  0.000000000E+00  1.207650837E+02  1.207650837E+02  0.000000000E+00  0.00000E+00  9.000E+00
      21    -1     0     0   502   503  0.000000000E+00  0.000000000E+00 -1.854585436E+03  1.854585436E+03  0.000000000E+00  0.00000E+00  9.000E+00
       6     2     1     2   502     0  2.523937682E+00 -6.888221954E+01 -2.772155144E+01  1.873595870E+02  1.720000000E+02  0.00000E+00  9.000E+00
      -6     2     1     2     0   504  7.106257367E+01 -2.113529809E+01 -1.646907171E+03  1.657523399E+03  1.720000000E+02  0.00000E+00  9.000E+00
      24     2     3     3     0     0  2.945262312E+01 -1.078105475E+02 -1.691990673E+01  1.385763230E+02  8.016572149E+01  0.00000E+00  9.000E+00
     -24     2     4     4     0     0  4.933922769E+01 -1.674593306E+01 -1.617970172E+03  1.620766323E+03  7.963171254E+01  0.00000E+00  9.000E+00
     -11     1     5     5     0     0 -2.443457384E+01 -5.152340363E+01  6.034657384E+00  5.734218874E+01  1.698470932E-06  0.00000E+00  9.000E+00
      12     1     5     5     0     0  5.388719696E+01 -5.628714386E+01 -2.295456411E+01  8.123413429E+01  3.034573093E-06  0.00000E+00  9.000E+00
      13     1     6     6     0     0  4.125406259E+01 -2.370286692E+01 -4.103542810E+02  4.131033279E+02  0.000000000E+00  0.00000E+00  9.000E+00
     -14     1     6     6     0     0  8.085165098E+00  6.956933862E+00 -1.207615891E+03  1.207662995E+03  2.157918644E-05  0.00000E+00  9.000E+00
       5     1     3     3   502     0 -2.692868544E+01  3.892832794E+01 -1.080164471E+01  4.878326398E+01  4.750000000E+00  0.00000E+00  9.000E+00
      -5     1     4     4     0   504  2.172334598E+01 -4.389365025E+00 -2.893699882E+01  3.675707669E+01  4.750000000E+00  0.00000E+00  9.000E+00
      21     1     1     2   511   503 -7.358651135E+01  9.001751763E+01 -5.919162989E+01  1.304675331E+02  2.431401974E-06  0.00000E+00  9.000E+00
</event>
<event>
     13  10001  1.00000E+00  1.58465E+02 -1.00000E+00  1.17523E-01
      21    -1     0     0   502   513  0.000000000E+00  0.000000000E+00  4.988406166E+02  4.988406166E+02  0.000000000E+00  0.00000E+00  9.000E+00
      -1    -1     0     0     0   512  0.000000000E+00  0.000000000E+00 -1.907826230E+02  1.907826230E+02  0.000000000E+00  0.00000E+00  9.000E+00
       6     2     1     2   502     0  5.681061135E+01  1.480227853E+02  1.097479496E+02  2.583927301E+02  1.720000000E+02  0.00000E+00  9.000E+00
      -6     2     1     2     0   512 -1.374147081E+02 -1.158887811E+01  1.457313445E+02  2.642701816E+02  1.720000000E+02  0.00000E+00  9.000E+00
      24     2     3     3     0     0  6.520686199E+01  3.021916074E+01  2.689447803E+01  1.140478263E+02  8.437097380E+01  0.00000E+00  9.000E+00
     -24     2     4     4     0     0 -1.624452190E+02  9.360275759E+00  9.646259235E+01  2.049796598E+02  7.896559558E+01  0.00000E+00  9.000E+00
     -11     1     5     5     0     0  4.219060679E+01  5.869150926E+01  7.649217919E+00  7.268597592E+01  2.658928397E-06  0.00000E+00  9.000E+00
      12     1     5     5     0     0  2.301625521E+01 -2.847234853E+01  1.924526011E+01  4.136185043E+01  8.920806376E-07  0.00000E+00  9.000E+00
      13     1     6     6     0     0 -7.937383629E+01 -2.027161191E+01  1.187994484E+01  8.277848287E+01  2.105655877E-06  0.00000E+00  9.000E+00
     -14     1     6     6     0     0 -8.307138273E+01  2.963188767E+01  8.458264752E+01  1.222011770E+02  2.336015456E-06  0.00000E+00  9.000E+00
       5     1     3     3   502     0 -8.396250647E+00  1.178036246E+02  8.285347158E+01  1.443449038E+02  4.750000000E+00  0.00000E+00  9.000E+00
      -5     1     4     4     0   512  2.503051093E+01 -2.094915387E+01  4.926875219E+01  5.929052174E+01  4.750000000E+00  0.00000E+00  9.000E+00
      -1     1     1     2     0   513  8.060409673E+01 -1.364339072E+02  5.257869941E+01  1.669603279E+02  1.168007728E-06  0.00000E+00  9.000E+00
</event>
<event>
     13  10001  1.00000E+00  1.02358E+01 -1.00000E+00  2.00735E-01
      21    -1     0     0   502   503  0.000000000E+00  0.000000000E+00  8.857654236E+02  8.857654236E+02  0.000000000E+00  0.00000E+00  9.000E+00
      21    -1     0     0   511   504  0.000000000E+00  0.000000000E+00 -1.381339463E+02  1.381339463E+02  0.000000000E+00  0.00000E+00  9.000E+00
       6     2     1     2   502     0  3.346161157E+01 -8.489622236E+01  9.323792843E+01  2.158804283E+02  1.720000000E+02  0.00000E+00  9.000E+00
      -6     2     1     2     0   504 -2.439912599E+01  8.013776124E+01  7.182778211E+02  7.433198547E+02  1.720000000E+02  0.00000E+00  9.000E+00
      24     2     3     3     0     0  6.285912882E+01 -7.169605287E+01  1.213957048E+02  1.728237056E+02  7.771436169E+01  0.00000E+00  9.000E+00
     -24     2     4     4     0     0  3.292441132E+01 -3.206695072E+00  2.464066400E+02  2.607048317E+02  7.846322267E+01  0.00000E+00  9.000E+00
     -11     1     5     5     0     0 -1.625914957E+01 -2.046844853E+01  1.304785213E+01  2.921581379E+01  5.057621821E-07  0.00000E+00  9.000E+00
      12     1     5     5     0     0  7.911827840E+01 -5.122760434E+01  1.083478527E+02  1.436078918E+02  2.697398305E-06  0.00000E+00  9.000E+00
      13     1     6     6     0     0 -8.641356527E+00 -2.905101750E+01  1.446167855E+02  1.477587538E+02  2.697398305E-06  0.00000E+00  9.000E+00
     -14     1     6     6     0     0  4.156576784E+01  2.584432243E+01  1.017898545E+02  1.129460780E+02  0.000000000E+00  0.00000E+00  9.000E+00
       5     1     3     3   502     0 -2.939751726E+01 -1.320016949E+01 -2.815777637E+01  4.305672265E+01  4.750000000E+00  0.00000E+00  9.000E+00
      -5     1     4     4     0   504 -5.732353731E+01  8.334445631E+01  4.718711811E+02  4.826150230E+02  4.750000000E+00  0.00000E+00  9.000E+00
      21     1     1     2   511   503 -9.062485572E+00  4.758461125E+00 -6.388427227E+01  6.469908686E+01  3.015782986E-06  0.00000E+00  9.000E+00
</event>
<event>
     13  10001  1.00000E+00  4.32938E+01 -1.00000E+00  1.45947E-01
      21    -1     0     0   502   512  0.000000000E+00  0.000000000E+00  7.724452612E+02  7.724452612E+02  0.000000000E+00  0.00000E+00  9.000E+00
      21    -1     0     0   503   504  0.000000000E+00  0.000000000E+00 -1.137036564E+02  1.137036564E+02  0.000000000E+00  0.00000E+00  9.000E+00
       6     2     1     2   502     0  7.191143811E+01  5.702341747E+01  2.851799877E+01  1.970284277E+02  1.720000000E+02  0.00000E+00  9.000E+00
      -6     2     1     2     0   504 -8.521018151E+01 -1.582272245E+01  3.029114019E+02  3.589574501E+02  1.720000000E+02  0.00000E+00  9.000E+00
      24     2     3     3     0     0  7.416568521E+01  1.008055430E+02  3.505700064E+01  1.524495404E+02  7.968414333E+01  0.00000E+00  9.000E+00
     -24     2     4     4     0     0 -2.032830494E+01 -1.879006078E+01  5.403294635E+01  1.016997755E+02  8.159030995E+01  0.00000E+00  9.000E+00
     -11     1     5     5     0     0  1.402564917E+01  8.161087291E+01  3.342698525E+01  8.929958990E+01  1.966049969E-06  0.00000E+00  9.000E+00
      12     1     5     5     0     0  6.014003604E+01  1.919467012E+01  1.630015391E+00  6.314995048E+01  1.339447800E-06  0.00000E+00  9.000E+00
      13     1     6     6     0     0 -4.004417370E+01 -3.708745513E+01  5.087973304E+01  7.461744038E+01  1.168007728E-06  0.00000E+00  9.000E+00
     -14     1     6     6     0     0  1.971586875E+01  1.829739436E+01  3.153213311E+00  2.708233511E+01  3.291774099E-07  0.00000E+00  9.000E+00
       5     1     3     3   502     0 -2.254247099E+00 -4.378212557E+01 -6.539001870E+00  4.457888733E+01  4.750000000E+00  0.00000E+00  9.000E+00
      -5     1     4     4     0   504 -6.488187657E+01  2.967338330E+00  2.488784556E+02  2.572576746E+02  4.750000000E+00  0.00000E+00  9.000E+00
      21     1     1     2   503   512  1.329874341E+01 -4.120069502E+01  3.273122042E+02  3.301630398E+02  3.814697266E-06  0.00000E+00  9.000E+00
</event>
<event>
     13  10001  1.00000E+00  1.54246E+02 -1.00000E+00  1.17999E-01
      21    -1     0     0   502   503  0.000000000E+00  0.000000000E+00  1.509883580E+03  1.509883580E+03  0.000000000E+00  0.00000E+00  9.000E+00
      21    -1     0     0   503   511  0.000000000E+00  0.000000000E+00 -7.394204551E+01  7.394204551E+01  0.000000000E+00  0.00000E+00  9.000E+00
       6     2     1     2   502     0 -7.239076169E+01  1.185697973E+02  3.271938438E+02  3.948911630E+02  1.720000000E+02  0.00000E+00  9.000E+00
      -6     2     1     2     0   504  1.883722283E+02 -1.688311829E+01  8.508981228E+02  8.884710189E+02  1.720000000E+02  0.00000E+00  9.000E+00
      24     2     3     3     0     0 -4.946699132E+00  7.251775478E+01  8.132568688E+01  1.357711034E+02  8.084943161E+01  0.00000E+00  9.000E+00
     -24     2     4     4     0     0  1.123375675E+02 -6.295843953E+01  6.704841218E+02  6.872845901E+02  7.891549961E+01  0.00000E+00  9.000E+00
     -11     1     5     5     0     0 -2.036524676E+01  5.941091926E+01  9.314140746E+01  1.123375377E+02  1.348699152E-06  0.00000E+00  9.000E+00
      12     1     5     5     0     0  1.541854762E+01  1.310683552E+01 -1.181572058E+01  2.343356569E+01  6.951036328E-07  0.00000E+00  9.000E+00
      13     1     6     6     0     0  1.227198339E+02 -4.617128064E+01  5.709347879E+02  5.857973001E+02  1.321449896E-05  0.00000E+00  9.000E+00
     -14     1     6     6     0     0 -1.038226636E+01 -1.678715889E+01  9.954933384E+01  1.014872900E+02  4.046097457E-06  0.00000E+00  9.000E+00
       5     1     3     3   502     0 -6.744406256E+01  4.605204255E+01  2.458681569E+02  2.591200596E+02  4.750000000E+00  0.00000E+00  9.000E+00
      -5     1     4     4     0   504  7.603466077E+01  4.607532125E+01  1.804140010E+02  2.011864288E+02  4.750000000E+00  0.00000E+00  9.000E+00
      21     1     1     2   504   511 -1.159814666E+02 -1.016866791E+02  2.578495683E+02  3.004634440E+02  5.394796609E-06  0.00000E+00  9.000E+00
</event>
<event>
     13  10001  1.00000E+00  4.44782E+00 -1.00000E+00  2.63784E-01
      -1    -1     0     0     0   512  0.000000000E+00  0.000000000E+00  4.290679072E+01  4.290679072E+01  0.000000000E+00  0.00000E+00  9.000E+00
       1    -1     0     0   513     0  0.000000000E+00  0.000000000E+00 -8.900550707E+02  8.900550707E+02  0.000000000E+00  0.00000E+00  9.000E+00
       6     2     1     2   502     0 -1.590897546E+01  5.681033227E+01 -2.610847137E+02  3.181662098E+02  1.720000000E+02  0.00000E+00  9.000E+00
      -6     2     1     2     0   512  1.156859042E+01 -5.583864020E+01 -5.686965040E+02  5.968680756E+02  1.720000000E+02  0.00000E+00  9.000E+00
      24     2     3     3     0     0  2.201113930E+01  5.873511716E+01 -7.094508722E+01  1.242144634E+02  8.038484477E+01  0.00000E+00  9.000E+00
     -24     2     4     4     0     0 -4.968969594E+01 -6.987292318E+01 -3.302295613E+02  3.502132885E+02  7.903475822E+01  0.00000E+00  9.000E+00
     -11     1     5     5     0     0 -8.941807033E+00  5.369518176E+01 -9.539414726E+00  5.526417367E+01  1.842930893E-06  0.00000E+00  9.000E+00
      12     1     5     5     0     0  3.095294634E+01  5.039935394E+00 -6.140567250E+01  6.895028971E+01  1.348699152E-06  0.00000E+00  9.000E+00
      13     1     6     6     0     0 -8.606098574E+00 -5.717992344E+01 -9.600121665E+01  1.120707017E+02  0.000000000E+00  0.00000E+00  9.000E+00
     -14     1     6     6     0     0 -4.108359737E+01 -1.269299973E+01 -2.342283447E+02  2.381425868E+02  0.000000000E+00  0.00000E+00  9.000E+00
       5     1     3     3   502     0 -3.792011476E+01 -1.924784890E+00 -1.901396265E+02  1.939517464E+02  4.750000000E+00  0.00000E+00  9.000E+00
      -5     1     4     4     0   512  6.125828636E+01  1.403428298E+01 -2.384669427E+02  2.466547871E+02  4.750000000E+00  0.00000E+00  9.000E+00
      21     1     1     2   513   502  4.340385036E+00 -9.716920712E-01 -1.736706229E+01  1.792757597E+01  3.371747881E-07  0.00000E+00  9.000E+00
</event>
<event>
     13  10001  1.00000E+00  1.07338E+02 -1.00000E+00  1.24794E-01
      21    -1     0     0   503   504  0.000000000E+00  0.000000000E+00  5.267382159E+02  5.267382159E+02  0.000000000E+00  0.00000E+00  9.000E+00
       2    -1     0     0   502     0  0.000000000E+00  0.000000000E+00 -8.083261197E+02  8.083261197E+02  0.000000000E+00  0.00000E+00  9.000E+00
       6     2     1     2   502     0 -1.870435366E+02  3.138268884E+01  5.032433315E+01  2.609342757E+02  1.720000000E+02  0.00000E+00  9.000E+00
      -6     2     1     2     0   504  8.832236150E+01 -7.351970210E+01  3.376728627E+02  3.959961469E+02  1.720000000E+02  0.00000E+00  9.000E+00
      24     2     3     3     0     0 -9.134200658E+01  7.441594252E+01 -3.687496173E+00  1.428221088E+02  8.064404792E+01  0.00000E+00  9.000E+00
     -24     2     4     4     0     0  2.805426677E+01 -8.110343636E+01  1.132685306E+02  1.634673895E+02  8.078996297E+01  0.00000E+00  9.000E+00
     -11     1     5     5     0     0 -2.386183835E+00  3.599329913E+01 -2.463874864E+01  4.368385732E+01  1.936921693E-06  0.00000E+00  9.000E+00
      12     1     5     5     0     0 -8.895582275E+01  3.842264339E+01  2.095125247E+01  9.913825147E+01  1.784161275E-06  0.00000E+00  9.000E+00
      13     1     6     6     0     0  2.407476285E+01  9.344177835E+00  3.681524847E+01  4.496966073E+01  6.743495762E-07  0.00000E+00  9.000E+00
     -14     1     6     6     0     0  3.979503920E+00 -9.044761420E+01  7.645328215E+01  1.184977287E+02  2.336015456E-06  0.00000E+00  9.000E+00
       5     1     3     3   502     0 -9.570153000E+01 -4.303325368E+01  5.401182933E+01  1.181121669E+02  4.750000000E+00  0.00000E+00  9.000E+00
      -5     1     4     4     0   504  6.026809473E+01  7.583734259E+00  2.244043321E+02  2.325287574E+02  4.750000000E+00  0.00000E+00  9.000E+00
       2     1     1     2   503     0  9.872117509E+01  4.213701326E+01 -6.695850997E+02  6.781339131E+02  1.078959322E-05  0.00000E+00  9.000E+00
</event>
<event>
     13  10001  1.00000E+00  1.11481E+01 -1.00000E+00  1.96322E-01
      21    -1     0     0   502   503  0.000000000E+00  0.000000000E+00  7.345411191E+02  7.345411191E+02  0.000000000E+00  0.00000E+00  9.000E+00
      21    -1     0     0   511   504  0.000000000E+00  0.000000000E+00 -7.146790987E+02  7.146790987E+02  0.000000000E+00  0.00000E+00  9.000E+00
       6     2     1     2   502     0 -1.275086259E+02  1.852925342E+00 -1.636162191E+02  2.694738395E+02  1.720000000E+02  0.00000E+00  9.000E+00
      -6     2     1     2     0   504  1.332119840E+02  7.725758644E+00  6.641647741E+02  6.989305882E+02  1.720000000E+02  0.00000E+00  9.000E+00
      24     2     3     3     0     0 -9.307153450E+01 -9.358450524E+00 -1.886449001E+02  2.251951134E+02  7.985016998E+01  0.00000E+00  9.000E+00
     -24     2     4     4     0     0  9.823826749E+01  6.281107310E+01  5.428501958E+02  5.610997422E+02  8.093576156E+01  0.00000E+00  9.000E+00
     -11     1     5     5     0     0 -1.057911417E+02 -1.767375424E+01 -1.715686343E+02  2.023361646E+02  2.697398305E-06  0.00000E+00  9.000E+00
      12     1     5     5     0     0  1.271960724E+01  8.315303714E+00 -1.707626581E+01  2.285894875E+01  5.840038640E-07  0.00000E+00  9.000E+00
      13     1     6     6     0     0  2.158260954E+01  6.124592682E+01  2.680803885E+02  2.758332236E+02  5.394796609E-06  0.00000E+00  9.000E+00
     -14     1     6     6     0     0  7.665565795E+01  1.565146278E+00  2.747698074E+02  2.852665186E+02  6.607249480E-06  0.00000E+00  9.000E+00
       5     1     3     3   502     0 -3.443709145E+01  1.121137587E+01  2.502868095E+01  4.427872612E+01  4.750000000E+00  0.00000E+00  9.000E+00
      -5     1     4     4     0   504  3.497371654E+01 -5.508531445E+01  1.213145782E+02  1.378308460E+02  4.750000000E+00  0.00000E+00  9.000E+00
      21     1     1     2   511   503 -5.703358084E+00 -9.578683986E+00 -4.806865346E+02  4.808157901E+02  5.394796609E-06  0.00000E+00  9.000E+00
</event>
<event>
     13  10001  1.00000E+00  1.23476E+02 -1.00000E+00  1.22076E-01
      21    -1     0     0   502   503  0.000000000E+00  0.000000000E+00  3.650598654E+02  3.650598654E+02  0.000000000E+00  0.00000E+00  9.000E+00
      21    -1     0     0   512   504  0.000000000E+00  0.000000000E+00 -2.505547077E+02  2.505547077E+02  0.000000000E+00  0.00000E+00  9.000E+00
       6     2     1     2   502     0 -3.844972737E+01  9.817536413E+00  1.673262846E+02  2.432218146E+02  1.720000000E+02  0.00000E+00  9.000E+00
      -6     2     1     2     0   504 -4.497596881E+01  8.121311227E+01  6.069950305E+01  2.046627398E+02  1.720000000E+02  0.00000E+00  9.000E+00
      24     2     3     3     0     0  4.383418083E+01 -1.454058929E+01  9.853896600E+01  1.331390387E+02  7.670209686E+01  0.00000E+00  9.000E+00
     -24     2     4     4     0     0 -2.973280048E+01  7.562771304E+01 -2.658895179E+01  1.157504925E+02  7.802316163E+01  0.00000E+00  9.000E+00
     -11     1     5     5     0     0 -9.251400759E+00 -6.924678185E-01  7.127436540E+01  7.187560846E+01  2.132480600E-06  0.00000E+00  9.000E+00
      12     1     5     5     0     0  5.308558159E+01 -1.384812148E+01  2.726460060E+01  6.126343026E+01  8.259061849E-07  0.00000E+00  9.000E+00
      13     1     6     6     0     0 -4.868262160E+01  4.968785945E+01  6.212019904E+00  6.983888755E+01  8.387116956E-07  0.00000E+00  9.000E+00
     -14     1     6     6     0     0  1.894982111E+01  2.593985358E+01 -3.280097170E+01  4.591160494E+01  1.507891493E-06  0.00000E+00  9.000E+00
       5     1     3     3   502     0 -8.228390820E+01  2.435812571E+01  6.878731860E+01  1.100827758E+02  4.750000000E+00  0.00000E+00  9.000E+00
      -5     1     4     4     0   504 -1.524316832E+01  5.585399228E+00  8.728845484E+01  8.891224727E+01  4.750000000E+00  0.00000E+00  9.000E+00
      21     1     1     2   512   503  8.342569617E+01 -9.103064868E+01 -1.135206300E+02  1.677300188E+02  2.336015456E-06  0.00000E+00  9.000E+00
</event>
<event>
     13  10001  1.00000E+00  1.16977E+02 -1.00000E+00  1.23111E-01
      21    -1     0     0   511   504  0.000000000E+00  0.000000000E+00  1.248684803E+02  1.248684803E+02  0.000000000E+00  0.00000E+00  9.000E+00
      21    -1     0     0   502   503  0.000000000E+00  0.000000000E+00 -1.330246564E+03  1.330246564E+03  0.000000000E+00  0.00000E+00  9.000E+00
       6     2     1     2   502     0  5.326511157E+01  9.841391676E+01 -5.263006268E+02  5.648883261E+02  1.720000000E+02  0.00000E+00  9.000E+00
      -6     2     1     2     0   504  4.549867411E+01 -3.572954039E+01 -7.374817331E+02  7.594801091E+02  1.720000000E+02  0.00000E+00  9.000E+00
      24     2     3     3     0     0  5.478390291E+01  1.293276945E+02 -4.943573456E+02  5.201568596E+02  8.029349193E+01  0.00000E+00  9.000E+00
     -24     2     4     4     0     0 -3.601990234E+01 -2.867580876E+01 -2.912261925E+02  3.057603680E+02  8.097513231E+01  0.00000E+00  9.000E+00
     -11     1     5     5     0     0 -1.395064571E+01  2.411823813E+01 -1.706694836E+02  1.729288367E+02  4.264961200E-06  0.00000E+00  9.000E+00
      12     1     5     5     0     0  6.873454862E+01  1.052094563E+02 -3.236878620E+02  3.472280229E+02  6.607249480E-06  0.00000E+00  9.000E+00
      13     1     6     6     0     0 -3.162904524E+00  2.038988737E+01 -1.663641910E+02  1.676388843E+02  3.303624740E-06  0.00000E+00  9.000E+00
     -14     1     6     6     0     0 -3.285699782E+01 -4.906569613E+01 -1.248620015E+02  1.381214837E+02  3.814697266E-06  0.00000E+00  9.000E+00
       5     1     3     3   502     0 -1.518791334E+00 -3.091377770E+01 -3.194328127E+01  4.473146652E+01  4.750000000E+00  0.00000E+00  9.000E+00
      -5     1     4     4     0   504  8.151857645E+01 -7.053731633E+00 -4.462555406E+02  4.537197411E+02  4.750000000E+00  0.00000E+00  9.000E+00
      21     1     1     2   511   503 -9.876378569E+01 -6.268437637E+01  5.840427597E+01  1.307466093E+02  2.431401974E-06  0.00000E+00  9.000E+00
</event>
<event>
     13  10001  1.00000E+00  2.43976E+01 -1.00000E+00  1.63592E-01
      21    -1     0     0   503   504  0.000000000E+00  0.000000000E+00  3.487443451E+01  3.487443451E+01  0.000000000E+00  0.00000E+00  9.000E+00
      21    -1     0     0   512   503  0.000000000E+00  0.000000000E+00 -1.246050086E+03  1.246050086E+03  0.000000000E+00  0.00000E+00  9.000E+00
       6     2     1     2   502     0  1.778504005E+01 -9.564112341E+00 -7.881721269E+02  8.069740278E+02  1.720000000E+02  0.00000E+00  9.000E+00
      -6     2     1     2     0   504 -1.656402908E+01  3.393118403E+01 -2.943481930E+02  3.430022610E+02  1.720000000E+02  0.00000E+00  9.000E+00
      24     2     3     3     0     0 -4.682311030E+00  6.161924881E+01 -4.420939022E+02  4.529054569E+02  7.653416671E+01  0.00000E+00  9.000E+00
     -24     2     4     4     0     0 -7.477929898E+01  5.019571077E+00 -2.004398867E+02  2.286946431E+02  8.067187830E+01  0.00000E+00  9.000E+00
     -11     1     5     5     0     0  3.300313932E+01  4.187536021E+01 -2.951288442E+02  2.999062981E+02  5.394796609E-06  0.00000E+00  9.000E+00
      12     1     5     5     0     0 -3.768545035E+01  1.974388861E+01 -1.469650581E+02  1.529991588E+02  0.000000000E+00  0.00000E+00  9.000E+00
      13     1     6     6     0     0  2.789009020E+00 -9.940124461E+00  2.753643930E+00  1.068490526E+01  7.974557972E-07  0.00000E+00  9.000E+00
     -14     1     6     6     0     0 -7.756830800E+01  1.495969554E+01 -2.031935307E+02  2.180097379E+02  3.814697266E-06  0.00000E+00  9.000E+00
       5     1     3     3   502     0  2.246735107E+01 -7.118336115E+01 -3.460782247E+02  3.540685709E+02  4.750000000E+00  0.00000E+00  9.000E+00
      -5     1     4     4     0   504  5.821526990E+01  2.891161295E+01 -9.390830629E+01  1.143076179E+02  4.750000000E+00  0.00000E+00  9.000E+00
      21     1     1     2   512   502 -1.221010965E+00 -2.436707169E+01 -1.286553310E+02  1.309482312E+02  0.000000000E+00  0.00000E+00  9.000E+00
</event>
<event>
     13  10001  1.00000E+00  1.69419E+01 -1.00000E+00  1.77308E-01
      -1    -1     0     0     0   512  0.000000000E+00  0.000000000E+00  7.826849734E+02  7.826849734E+02  0.000000000E+00  0.00000E+00  9.000E+00
       1    -1     0     0   511     0  0.000000000E+00  0.000000000E+00 -2.793482974E+02  2.793482974E+02  0.000000000E+00  0.00000E+00  9.000E+00
       6     2     1     2   502     0 -9.234788869E+01  3.400832112E+02  1.248219691E+02  4.115206520E+02  1.720000000E+02  0.00000E+00  9.000E+00
      -6     2     1     2     0   512  7.652098361E+01 -3.461278417E+02  4.377184988E+02  5.889324477E+02  1.720000000E+02  0.00000E+00  9.000E+00
      24     2     3     3     0     0 -9.063451857E+01  1.463345536E+02  1.040755771E+02  2.165989928E+02  8.034289266E+01  0.00000E+00  9.000E+00
     -24     2     4     4     0     0 -3.284545990E+00 -2.659064414E+02  3.411998933E+02  4.401278801E+02  8.110585580E+01  0.00000E+00  9.000E+00
     -11     1     5     5     0     0 -6.011549372E+01  1.426925460E+02  6.774166841E+01  1.690087835E+02  2.336015456E-06  0.00000E+00  9.000E+00
      12     1     5     5     0     0 -3.051902485E+01  3.642007579E+00  3.633390869E+01  4.759020926E+01  1.066240300E-06  0.00000E+00  9.000E+00
      13     1     6     6     0     0 -3.263002249E+01 -1.998363314E+02  2.791693749E+02  3.448692761E+02  0.000000000E+00  0.00000E+00  9.000E+00
     -14     1     6     6     0     0  2.934547650E+01 -6.607010998E+01  6.203051841E+01  9.525860401E+01  1.907348633E-06  0.00000E+00  9.000E+00
       5     1     3     3   502     0 -1.713370112E+00  1.937486576E+02  2.074639201E+01  1.949216592E+02  4.750000000E+00  0.00000E+00  9.000E+00
      -5     1     4     4     0   512  7.980552960E+01 -8.022140029E+01  9.651860553E+01  1.488045676E+02  4.750000000E+00  0.00000E+00  9.000E+00
      21     1     1     2   511   502  1.582690508E+01  6.044630496E+00 -5.920379193E+01  6.158017101E+01  6.743495762E-07  0.00000E+00  9.000E+00
</event>
<event>
     13  10001  1.00000E+00  1.14093E+01 -1.00000E+00  1.95159E-01
      21    -1     0     0   502   503  0.000000000E+00  0.000000000E+00  1.547623908E+02  1.547623908E+02  0.000000000E+00  0.00000E+00  9.000E+00
      21    -1     0     0   512   504  0.000000000E+00  0.000000000E+00 -3.867097020E+02  3.867097020E+02  0.000000000E+00  0.00000E+00  9.000E+00
       6     2     1     2   502     0  3.576897877E+01  8.894186688E+01  2.949659153E+01  1.991083234E+02  1.720000000E+02  0.00000E+00  9.000E+00
      -6     2     1     2     0   504 -4.714399540E+01 -8.982522432E+01 -2.104571160E+02  2.901160542E+02  1.720000000E+02  0.00000E+00  9.000E+00
      24     2     3     3     0     0  5.559466173E+01  6.241865362E+01 -3.876598291E+01  1.230893776E+02  8.161702468E+01  0.00000E+00  9.000E+00
     -24     2     4     4     0     0 -4.167279509E+01 -5.989079080E+01 -3.420183418E+01  1.111901164E+02  7.661558494E+01  0.00000E+00  9.000E+00
     -11     1     5     5     0     0  1.340652151E+01  5.582879056E+01  9.990273285E+00  5.827859156E+01  7.725644944E-07  0.00000E+00  9.000E+00
      12     1     5     5     0     0  4.218814023E+01  6.589863062E+00 -4.875625619E+01  6.481078605E+01  0.000000000E+00  0.00000E+00  9.000E+00
      13     1     6     6     0     0 -6.415380167E+01 -4.705452067E+01 -2.964904804E+01  8.490526624E+01  1.815741803E-06  0.00000E+00  9.000E+00
     -14     1     6     6     0     0  2.248100658E+01 -1.283627012E+01 -4.552786143E+00  2.628485018E+01  7.633118912E-07  0.00000E+00  9.000E+00
       5     1     3     3   502     0 -1.982568296E+01  2.652321326E+01  6.826257443E+01  7.601894576E+01  4.750000000E+00  0.00000E+00  9.000E+00
      -5     1     4     4     0   504 -5.471200305E+00 -2.993443353E+01 -1.762552818E+02  1.789259377E+02  4.750000000E+00  0.00000E+00  9.000E+00
      21     1     1     2   512   503  1.137501663E+01  8.833574439E-01 -5.098678677E+01  5.224771525E+01  6.743495762E-07  0.00000E+00  9.000E+00
</event>
<event>
     13  10001  1.00000E+00  8.92105E+00 -1.00000E+00  2.08293E-01
      -1    -1     0     0     0   511  0.000000000E+00  0.000000000E+00  2.434714141E+02  2.434714141E+02  0.000000000E+00  0.00000E+00  9.000E+00
       1    -1     0     0   502     0  0.000000000E+00  0.000000000E+00 -1.850181496E+02  1.850181496E+02  0.000000000E+00  0.00000E+00  9.000E+00
       6     2     1     2   502     0 -5.243813037E+01  4.460329103E+00  1.130864323E+02  2.124669226E+02  1.720000000E+02  0.00000E+00  9.000E+00
      -6     2     1     2     0   512  4.720822971E+01 -1.168759181E+01 -7.495930699E+01  1.938249583E+02  1.720000000E+02  0.00000E+00  9.000E+00
      24     2     3     3     0     0  2.075711462E+01 -3.339544134E+01  3.093654392E+01  9.601191029E+01  8.194573728E+01  0.00000E+00  9.000E+00
     -24     2     4     4     0     0  4.508326663E-01  2.004449750E+01  1.866205760E+01  8.436856480E+01  7.979847870E+01  0.00000E+00  9.000E+00
     -11     1     5     5     0     0 -3.163737987E+01 -1.727192474E+01  1.341821550E+01  3.846156129E+01  8.760057960E-07  0.00000E+00  9.000E+00
      12     1     5     5     0     0  5.239449449E+01 -1.612351660E+01  1.751832842E+01  5.755034901E+01  7.152557373E-07  0.00000E+00  9.000E+00
      13     1     6     6     0     0  3.489416276E+01 -9.307271644E+00  1.452800547E+01  3.892673686E+01  2.920019320E-07  0.00000E+00  9.000E+00
     -14     1     6     6     0     0 -3.444333009E+01  2.935176914E+01  4.134052129E+00  4.544182794E+01  1.192092896E-06  0.00000E+00  9.000E+00
       5     1     3     3   502     0 -7.319524499E+01  3.785577045E+01  8.214988834E+01  1.164550123E+02  4.750000000E+00  0.00000E+00  9.000E+00
      -5     1     4     4     0   512  4.675739704E+01 -3.173208931E+01 -9.362136458E+01  1.094563935E+02  4.750000000E+00  0.00000E+00  9.000E+00
      21     1     1     2   512   511  5.229900658E+00  7.227262712E+00  2.032613919E+01  2.219768279E+01  0.000000000E+00  0.00000E+00  9.000E+00
</event>
<event>
     13  10001  1.00000E+00  5.82152E+01 -1.00000E+00  1.38282E-01
      21    -1     0     0   503   504  0.000000000E+00  0.000000000E+00  7.645898011E+02  7.645898011E+02  0.000000000E+00  0.00000E+00  9.000E+00
      21    -1     0     0   513   503  0.000000000E+00  0.000000000E+00 -7.307541851E+01  7.307541851E+01  0.000000000E+00  0.00000E+00  9.000E+00
       6     2     1     2   502     0  3.700570722E+00  1.110858621E+00  4.727737512E+02  5.031043113E+02  1.720000000E+02  0.00000E+00  9.000E+00
      -6     2     1     2     0   504 -4.964728302E+01 -3.685866834E+01  2.051861429E+02  2.747885867E+02  1.720000000E+02  0.00000E+00  9.000E+00
      24     2     3     3     0     0 -6.983009150E+00  3.833729222E+01  4.480643842E+02  4.569192320E+02  8.059144954E+01  0.00000E+00  9.000E+00
     -24     2     4     4     0     0 -1.047223167E+01 -7.918750962E+01  1.779489019E+02  2.108288709E+02  8.001669687E+01  0.00000E+00  9.000E+00
     -11     1     5     5     0     0 -1.261066601E+01 -1.451704744E+01  2.797810123E+02  2.804410605E+02  3.814697266E-06  0.00000E+00  9.000E+00
      12     1     5     5     0     0  5.627656864E+00  5.285433966E+01  1.682833719E+02  1.764781715E+02  2.697398305E-06  0.00000E+00  9.000E+00
      13     1     6     6     0     0 -4.316421331E+01 -4.613978252E+01  1.270724280E+02  1.419134624E+02  2.697398305E-06  0.00000E+00  9.000E+00
     -14     1     6     6     0     0  3.269198163E+01 -3.304772711E+01  5.087647391E+01  6.891540849E+01  1.168007728E-06  0.00000E+00  9.000E+00
       5     1     3     3   502     0  1.068357987E+01 -3.722643360E+01  2.470936697E+01  4.618507934E+01  4.750000000E+00  0.00000E+00  9.000E+00
      -5     1     4     4     0   504 -3.917505135E+01  4.232884129E+01  2.723724096E+01  6.395971582E+01  4.750000000E+00  0.00000E+00  9.000E+00
      21     1     1     2   513   502  4.594671230E+01  3.574780972E+01  1.355448848E+01  5.977232160E+01  1.039242493E-06  0.00000E+00  9.000E+00
</event>
<event>
     13  10001  1.00000E+00  5.35559E+01 -1.00000E+00  1.40356E-01
      21    -1     0     0   503   504  0.000000000E+00  0.000000000E+00  1.009115569E+03  1.009115569E+03  0.000000000E+00  0.00000E+00  9.000E+00
      21    -1     0     0   511   503  0.000000000E+00  0.000000000E+00 -6.990796925E+01  6.990796925E+01  0.000000000E+00  0.00000E+00  9.000E+00
       6     2     1     2   502     0 -1.103123955E+02 -8.478743297E+01  5.373013638E+02  5.810632401E+02  1.720000000E+02  0.00000E+00  9.000E+00
      -6     2     1     2     0   504  1.531300637E+02  5.261792053E+01  3.569545941E+02  4.280397694E+02  1.720000000E+02  0.00000E+00  9.000E+00
      24     2     3     3     0     0 -6.486927199E+00 -8.254320661E+01  2.371823839E+02  2.634491204E+02  7.933785103E+01  0.00000E+00  9.000E+00
     -24     2     4     4     0     0  1.690275553E+02  4.705422680E+01  2.282132178E+02  2.981144470E+02  7.750184536E+01  0.00000E+00  9.000E+00
     -11     1     5     5     0     0 -3.530409183E+01 -6.316180307E+01  1.994381120E+02  2.121587914E+02  0.000000000E+00  0.00000E+00  9.000E+00
      12     1     5     5     0     0  2.881716463E+01 -1.938140354E+01  3.774427192E+01  5.129032894E+01  9.536743164E-07  0.00000E+00  9.000E+00
      13     1     6     6     0     0  2.514210083E+01 -2.081672185E+01  3.570360374E+01  4.837570116E+01  0.000000000E+00  0.00000E+00  9.000E+00
     -14     1     6     6     0     0  1.438854545E+02  6.787094865E+01  1.925096141E+02  2.497387459E+02  3.814697266E-06  0.00000E+00  9.000E+00
       5     1     3     3   502     0 -1.038254684E+02 -2.244226365E+00  3.001189799E+02  3.176141197E+02  4.750000000E+00  0.00000E+00  9.000E+00
      -5     1     4     4     0   504 -1.589749163E+01  5.563693730E+00  1.287413763E+02  1.299253224E+02  4.750000000E+00  0.00000E+00  9.000E+00
      21     1     1     2   511   502 -4.281766815E+01  3.216951244E+01  4.495164183E+01  6.992052875E+01  4.768371582E-07  0.00000E+00  9.000E+00
</event>
<event>
     13  10001  1.00000E+00  2.82323E+01 -1.00000E+00  1.58696E-01
      21    -1     0     0   503   504  0.000000000E+00  0.000000000E+00  8.200354056E+01  8.200354056E+01  0.000000000E+00  0.00000E+00  9.000E+00
       2    -1     0     0   502     0  0.000000000E+00  0.000000000E+00 -8.287074488E+02  8.287074488E+02  0.000000000E+00  0.00000E+00  9.000E+00
       6     2     1     2   502     0  2.085712278E+01  5.651576214E+01 -6.704555304E+01  1.941858829E+02  1.720000000E+02  0.00000E+00  9.000E+00
      -6     2     1     2     0   504 -4.504404604E+01 -7.107790214E+01 -5.146130354E+02  5.490825170E+02  1.720000000E+02  0.00000E+00  9.000E+00
      24     2     3     3     0     0 -9.614601303E-01  8.780425207E+01 -9.010192719E+01  1.493620159E+02  8.049933808E+01  0.00000E+00  9.000E+00
     -24     2     4     4     0     0  2.134806900E+01 -5.708388191E+01 -3.142762392E+02  3.375142302E+02  1.069204913E+02  0.00000E+00  9.000E+00
     -11     1     5     5     0     0 -2.822107483E+01  7.918502327E+01 -8.637652744E+01  1.205305002E+02  3.162979880E-06  0.00000E+00  9.000E+00
      12     1     5     5     0     0  2.725961470E+01  8.619228803E+00 -3.725399758E+00  2.883151578E+01  5.297776709E-07  0.00000E+00  9.000E+00
      13     1     6     6     0     0 -2.464119875E+01  6.098018532E+00 -1.803516726E+01  3.113907134E+01  5.331201500E-07  0.00000E+00  9.000E+00
     -14     1     6     6     0     0  4.598926775E+01 -6.318190044E+01 -2.962410719E+02  3.063751589E+02  0.000000000E+00  0.00000E+00  9.000E+00
       5     1     3     3   502     0  2.181858291E+01 -3.128848993E+01  2.305637416E+01  4.482386698E+01  4.750000000E+00  0.00000E+00  9.000E+00
      -5     1     4     4     0   504 -6.639211504E+01 -1.399402023E+01 -2.003367962E+02  2.115682868E+02  4.750000000E+00  0.00000E+00  9.000E+00
       2     1     1     2   503     0  2.418692326E+01  1.456213999E+01 -1.650453198E+02  1.674425895E+02  0.000000000E+00  0.00000E+00  9.000E+00
</event>
<event>
     13  10001  1.00000E+00  1.66155E+02 -1.00000E+00  1.16698E-01
      -1    -1     0     0     0   503  0.000000000E+00  0.000000000E+00  4.296446746E+02  4.296446746E+02  0.000000000E+00  0.00000E+00  9.000E+00
      21    -1     0     0   503   504  0.000000000E+00  0.000000000E+00 -4.227511503E+02  4.227511503E+02  0.000000000E+00  0.00000E+00  9.000E+00
       6     2     1     2   502     0 -1.897326541E+02 -5.326238027E+01 -1.243995507E+02  2.896456618E+02  1.720000000E+02  0.00000E+00  9.000E+00
      -6     2     1     2     0   504  4.884184028E+01  1.413368164E+02 -1.229991813E+02  2.589872963E+02  1.720000000E+02  0.00000E+00  9.000E+00
      24     2     3     3     0     0 -6.190904721E+01 -7.861626694E+01 -4.638247711E+01  1.376886932E+02  8.242326423E+01  0.00000E+00  9.000E+00
     -24     2     4     4     0     0  2.716761352E+01  1.808278345E+01 -9.888791626E+01  1.314520292E+02  8.022312457E+01  0.00000E+00  9.000E+00
     -11     1     5     5     0     0 -2.231163921E+01  5.510004735E+00  1.391771353E+01  2.686767847E+01  6.078504936E-07  0.00000E+00  9.000E+00
      12     1     5     5     0     0 -3.959740800E+01 -8.412627168E+01 -6.030019064E+01  1.108210147E+02  1.784161275E-06  0.00000E+00  9.000E+00
      13     1     6     6     0     0  4.820565629E+01 -6.166455746E+00 -3.480110335E+01  5.977396816E+01  6.743495762E-07  0.00000E+00  9.000E+00
     -14     1     6     6     0     0 -2.103804277E+01  2.424923920E+01 -6.408681290E+01  7.167806103E+01  1.348699152E-06  0.00000E+00  9.000E+00
       5     1     3     3   502     0 -1.278236069E+02  2.535388667E+01 -7.801707358E+01  1.519569686E+02  4.750000000E+00  0.00000E+00  9.000E+00
      -5     1     4     4     0   504  2.167422676E+01  1.232540330E+02 -2.411126499E+01  1.275352671E+02  4.750000000E+00  0.00000E+00  9.000E+00
      -1     1     1     2     0   502  1.408908138E+02 -8.807443614E+01  2.542922563E+02  3.037628669E+02  2.697398305E-06  0.00000E+00  9.000E+00
</event>
<event>
     13  10001  1.00000E+00  5.72793E+01 -1.00000E+00  1.38680E-01
      21    -1     0     0   502   503  0.000000000E+00  0.000000000E+00  3.849818867E+02  3.849818867E+02  0.000000000E+00  0.00000E+00  9.000E+00
      21    -1     0     0   511   504  0.000000000E+00  0.000000000E+00 -2.238448402E+02  2.238448402E+02  0.000000000E+00  0.00000E+00  9.000E+00
       6     2     1     2   502     0 -1.862992105E+02 -5.524399977E+01  1.072654564E+02  2.808009499E+02  1.720000000E+02  0.00000E+00  9.000E+00
      -6     2     1     2     0   504  1.315173753E+02  3.851459888E+01  1.116755228E+02  2.466487720E+02  1.720000000E+02  0.00000E+00  9.000E+00
      24     2     3     3     0     0 -8.436277220E+01 -4.128536879E+01  1.251871450E+02  1.762560779E+02  8.107295921E+01  0.00000E+00  9.000E+00
     -24     2     4     4     0     0  4.302411961E+01  7.818660573E+01  1.001544864E+02  1.488723883E+02  6.455886215E+01  0.00000E+00  9.000E+00
     -11     1     5     5     0     0 -1.050968854E+00 -2.895923655E+01  6.947883382E+01  7.527981314E+01  9.536743164E-07  0.00000E+00  9.000E+00
      12     1     5     5     0     0 -8.331180335E+01 -1.232613224E+01  5.570831123E+01  1.009762648E+02  2.236564522E-06  0.00000E+00  9.000E+00
      13     1     6     6     0     0 -1.561175271E+01  2.685500811E+01  3.871117309E+01  4.963338801E+01  4.768371582E-07  0.00000E+00  9.000E+00
     -14     1     6     6     0     0  5.863587231E+01  5.133159761E+01  6.144331326E+01  9.923900030E+01  1.651812370E-06  0.00000E+00  9.000E+00
       5     1     3     3   502     0 -1.019364383E+02 -1.395863099E+01 -1.792168870E+01  1.045448720E+02  4.750000000E+00  0.00000E+00  9.000E+00
      -5     1     4     4     0   504  8.849325565E+01 -3.967200685E+01  1.152103649E+01  9.777638368E+01  4.750000000E+00  0.00000E+00  9.000E+00
      21     1     1     2   511   503  5.478183522E+01  1.672940090E+01 -5.780393269E+01  8.137700510E+01  6.743495762E-07  0.00000E+00  9.000E+00
</event>
<event>
     13  10001  1.00000E+00  2.70074E+02 -1.00000E+00  1.08867E-01
      -3    -1     0     0     0   503  0.000000000E+00  0.000000000E+00  1.589449376E+03  1.589449376E+03  0.000000000E+00  0.00000E+00  9.000E+00
      21    -1     0     0   503   504  0.000000000E+00  0.000000000E+00 -1.848830310E+02  1.848830310E+02  0.000000000E+00  0.00000E+00  9.000E+00
       6     2     1     2   502     0 -2.519882075E+02 -1.231751876E+02  1.006619149E+02  3.440741267E+02  1.720000000E+02  0.00000E+00  9.000E+00
      -6     2     1     2     0   504  1.158909628E+01  9.601649414E-02  1.034584022E+03  1.048848137E+03  1.720000000E+02  0.00000E+00  9.000E+00
      24     2     3     3     0     0 -9.128980823E+01 -8.789574143E+01 -5.340435851E+00  1.482995734E+02  7.684238917E+01  0.00000E+00  9.000E+00
     -24     2     4     4     0     0  3.129436914E+01 -5.692986779E+01  7.522929736E+02  7.601423219E+02  8.747161896E+01  0.00000E+00  9.000E+00
     -11     1     5     5     0     0 -5.190213067E+01 -9.491900449E+01 -3.061807063E+00  1.082257975E+02  2.700689020E-06  0.00000E+00  9.000E+00
      12     1     5     5     0     0 -3.938767756E+01  7.023263060E+00 -2.278628788E+00  4.007377592E+01  1.358868255E-06  0.00000E+00  9.000E+00
      13     1     6     6     0     0  4.966251347E+01 -3.581905880E+01  2.623548233E+02  2.694056858E+02  6.607249480E-06  0.00000E+00  9.000E+00
     -14     1     6     6     0     0 -1.836814433E+01 -2.111080899E+01  4.899381502E+02  4.907366361E+02  1.078959322E-05  0.00000E+00  9.000E+00
       5     1     3     3   502     0 -1.606983993E+02 -3.527944617E+01  1.060023508E+02  1.957745533E+02  4.750000000E+00  0.00000E+00  9.000E+00
      -5     1     4     4     0   504 -1.970527286E+01  5.702588428E+01  2.822910484E+02  2.887058152E+02  4.750000000E+00  0.00000E+00  9.000E+00
      -3     1     1     2     0   502  2.403991112E+02  1.230791711E+02  2.693204081E+02  3.814101431E+02  0.000000000E+00  0.00000E+00  9.000E+00
</event>
<event>
     13  10001  1.00000E+00  2.43841E+02 -1.00000E+00  1.10424E-01
       4    -1     0     0   503     0  0.000000000E+00  0.000000000E+00  5.613154556E+02  5.613154556E+02  0.000000000E+00  0.00000E+00  9.000E+00
      21    -1     0     0   502   503  0.000000000E+00  0.000000000E+00 -4.126071262E+02  4.126071262E+02  0.000000000E+00  0.00000E+00  9.000E+00
       6     2     1     2   502     0 -3.578654698E+01 -4.542714215E+01 -2.501329876E+02  3.090223514E+02  1.720000000E+02  0.00000E+00  9.000E+00
      -6     2     1     2     0   504 -7.137696753E+01 -1.736034298E+02  8.700802874E+01  2.690487305E+02  1.720000000E+02  0.00000E+00  9.000E+00
      24     2     3     3     0     0 -7.126426874E+01 -4.276158306E+01 -9.469550168E+01  1.494944590E+02  8.046245232E+01  0.00000E+00  9.000E+00
     -24     2     4     4     0     0 -3.555129883E+01 -1.543875541E+02  1.218293513E+02  2.153103325E+02  8.010453638E+01  0.00000E+00  9.000E+00
     -11     1     5     5     0     0 -2.922536257E+01 -2.487168515E+01  6.072093692E+00  3.885347940E+01  9.610960183E-07  0.00000E+00  9.000E+00
      12     1     5     5     0     0 -4.203890617E+01 -1.788989791E+01 -1.007675954E+02  1.106409795E+02  2.336015456E-06  0.00000E+00  9.000E+00
      13     1     6     6     0     0 -4.181675441E+01 -1.247580357E+02  5.629456221E+01  1.431163378E+02  1.651812370E-06  0.00000E+00  9.000E+00
     -14     1     6     6     0     0  6.265455583E+00 -2.962951845E+01  6.553478906E+01  7.219399472E+01  1.907348633E-06  0.00000E+00  9.000E+00
       5     1     3     3   502     0  3.547772176E+01 -2.665559092E+00 -1.554374859E+02  1.595278924E+02  4.750000000E+00  0.00000E+00  9.000E+00
      -5     1     4     4     0   504 -3.582566870E+01 -1.921587569E+01 -3.482132253E+01  5.373839800E+01  4.750000000E+00  0.00000E+00  9.000E+00
       4     1     1     2   504     0  1.071635145E+02  2.190305720E+02  3.118332882E+02  3.958514999E+02  6.607249480E-06  0.00000E+00  9.000E+00
</event>
<event>
     13  10001  1.00000E+00  7.30916E+01 -1.00000E+00  1.32930E-01
      21    -1     0     0   502   511  0.000000000E+00  0.000000000E+00  1.887892784E+02  1.887892784E+02  0.000000000E+00  0.00000E+00  9.000E+00
      21    -1     0     0   503   504  0.000000000E+00  0.000000000E+00 -7.051077240E+02  7.051077240E+02  0.000000000E+00  0.00000E+00  9.000E+00
       6     2     1     2   502     0  1.814779533E+02  4.539181097E+01 -6.728032382E+01  2.628788809E+02  1.720000000E+02  0.00000E+00  9.000E+00
      -6     2     1     2     0   504 -1.329431931E+02 -1.000430713E+02 -4.913759475E+02  5.465499341E+02  1.720000000E+02  0.00000E+00  9.000E+00
      24     2     3     3     0     0  1.679084105E+02 -1.263060821E+01 -2.130727897E+01  1.874678938E+02  7.960806800E+01  0.00000E+00  9.000E+00
     -24     2     4     4     0     0 -3.800273840E+01 -1.105987926E+02 -2.666674375E+02  3.023336567E+02  8.134996438E+01  0.00000E+00  9.000E+00
     -11     1     5     5     0     0  1.337381273E+02  1.371309324E+01 -4.026624977E+01  1.403399675E+02  1.651812370E-06  0.00000E+00  9.000E+00
      12     1     5     5     0     0  3.417028324E+01 -2.634370145E+01  1.895897081E+01  4.712792630E+01  1.702649219E-06  0.00000E+00  9.000E+00
      13     1     6     6     0     0 -6.079520052E+01 -8.669839944E+01 -1.710520454E+02  2.011752249E+02  0.000000000E+00  0.00000E+00  9.000E+00
     -14     1     6     6     0     0  2.279246212E+01 -2.390039316E+01 -9.561539212E+01  1.011584318E+02  1.348699152E-06  0.00000E+00  9.000E+00
       5     1     3     3   502     0  1.356954282E+01  5.802241918E+01 -4.597304486E+01  7.541098708E+01  4.750000000E+00  0.00000E+00  9.000E+00
      -5     1     4     4     0   504 -9.494045472E+01  1.055572126E+01 -2.247085100E+02  2.442162774E+02  4.750000000E+00  0.00000E+00  9.000E+00
      21     1     1     2   503   511 -4.853476019E+01  5.465126038E+01  4.233782573E+01  8.446818748E+01  1.581489940E-06  0.00000E+00  9.000E+00
</event>
<event>
     13  10001  1.00000E+00  8.29863E+00 -1.00000E+00  2.12512E-01
       1    -1     0     0   513     0  0.000000000E+00  0.000000000E+00  1.515569114E+02  1.515569114E+02  0.000000000E+00  0.00000E+00  9.000E+00
      -1    -1     0     0     0   512  0.000000000E+00  0.000000000E+00 -7.413706774E+02  7.413706774E+02  0.000000000E+00  0.00000E+00  9.000E+00
       6     2     1     2   502     0  9.416682490E+01  1.511313718E+02 -1.855769020E+02  3.094040546E+02  1.720000000E+02  0.00000E+00  9.000E+00
      -6     2     1     2     0   512 -9.393281849E+01 -1.594267066E+02 -4.612525973E+02  5.259070333E+02  1.720000000E+02  0.00000E+00  9.000E+00
      24     2     3     3     0     0  4.518452536E+01  2.241553883E+01 -2.637945412E+01  9.884902324E+01  8.081556832E+01  0.00000E+00  9.000E+00
     -24     2     4     4     0     0 -9.645847691E+01 -1.856402794E+02 -4.273288163E+02  4.826992126E+02  8.137605020E+01  0.00000E+00  9.000E+00
     -11     1     5     5     0     0  2.983690702E+01  1.260194113E+01  2.717616502E+01  4.227994662E+01  1.719260824E-06  0.00000E+00  9.000E+00
      12     1     5     5     0     0  1.534761834E+01  9.813597705E+00 -5.355561914E+01  5.656907663E+01  6.743495762E-07  0.00000E+00  9.000E+00
      13     1     6     6     0     0 -2.086309107E+01 -3.978367448E+00 -8.727575289E+01  8.982289808E+01  0.000000000E+00  0.00000E+00  9.000E+00
     -14     1     6     6     0     0 -7.559538584E+01 -1.816619120E+02 -3.400530634E+02  3.928763145E+02  3.814697266E-06  0.00000E+00  9.000E+00
       5     1     3     3   502     0  4.898229954E+01  1.287158330E+02 -1.591974478E+02  2.105550314E+02  4.750000000E+00  0.00000E+00  9.000E+00
      -5     1     4     4     0   512  2.525658427E+00  2.621357279E+01 -3.392378099E+01  4.320782066E+01  4.750000000E+00  0.00000E+00  9.000E+00
      21     1     1     2   513   502 -2.340064156E-01  8.295334801E+00  5.701573324E+01  5.761650089E+01  1.348699152E-06  0.00000E+00  9.000E+00
</event>
<event>
     13  10001  1.00000E+00  2.66255E+01 -1.00000E+00  1.60624E-01
      21    -1     0     0   503   511  0.000000000E+00  0.000000000E+00  1.111062277E+03  1.111062277E+03  0.000000000E+00  0.00000E+00  9.000E+00
      21    -1     0     0   502   503  0.000000000E+00  0.000000000E+00 -5.572907880E+01  5.572907880E+01  0.000000000E+00  0.00000E+00  9.000E+00
       6     2     1     2   502     0 -3.205551745E+01  8.183988249E-01  8.543787055E+02  8.721096252E+02  1.720000000E+02  0.00000E+00  9.000E+00
      -6     2     1     2     0   504  3.539113996E+01 -2.723413283E+01  1.338029207E+02  2.224442680E+02  1.720000000E+02  0.00000E+00  9.000E+00
      24     2     3     3     0     0  4.413620790E+01  2.104349713E+01  4.063854335E+02  4.172087922E+02  8.076646651E+01  0.00000E+00  9.000E+00
     -24     2     4     4     0     0 -3.693436781E+01  1.649330614E+01  6.045177704E+01  1.104352471E+02  8.309843425E+01  0.00000E+00  9.000E+00
     -11     1     5     5     0     0  1.251631314E+01 -2.341293644E+01  4.942813296E+01  5.610671988E+01  1.784161275E-06  0.00000E+00  9.000E+00
      12     1     5     5     0     0  3.161989475E+01  4.445643357E+01  3.569573005E+02  3.611020723E+02  1.078959322E-05  0.00000E+00  9.000E+00
      13     1     6     6     0     0  8.219184080E+00  2.586041070E+01 -7.646512940E+00  2.819193127E+01  8.215933294E-07  0.00000E+00  9.000E+00
     -14     1     6     6     0     0 -4.515355189E+01 -9.367104559E+00  6.809828998E+01  8.224331580E+01  2.523185073E-06  0.00000E+00  9.000E+00
       5     1     3     3   502     0 -7.619172535E+01 -2.022509830E+01  4.479932720E+02  4.549008330E+02  4.750000000E+00  0.00000E+00  9.000E+00
      -5     1     4     4     0   504  7.232550777E+01 -4.372743897E+01  7.335114368E+01  1.120090209E+02  4.750000000E+00  0.00000E+00  9.000E+00
      21     1     1     2   504   511 -3.335622509E+00  2.641573401E+01  6.715157200E+01  7.223746260E+01  9.536743164E-07  0.00000E+00  9.000E+00
</event>
<event>
     13  10001  1.00000E+00  2.27593E+02 -1.00000E+00  1.11500E-01
      21    -1     0     0   502   503  0.000000000E+00  0.000000000E+00  2.948629092E+02  2.948629092E+02  0.000000000E+00  0.00000E+00  9.000E+00
      21    -1     0     0   503   512  0.000000000E+00  0.000000000E+00 -1.336497090E+03  1.336497090E+03  0.000000000E+00  0.00000E+00  9.000E+00
       6     2     1     2   502     0  1.251856501E+02 -7.953965276E+01 -5.618432400E+02  6.060114105E+02  1.720000000E+02  0.00000E+00  9.000E+00
      -6     2     1     2     0   504  6.149484846E+01 -5.064929812E+01  2.194611847E+02  2.899899643E+02  1.720000000E+02  0.00000E+00  9.000E+00
      24     2     3     3     0     0  4.499929928E+01  1.451123083E+01 -1.575389733E+02  1.832113134E+02  8.069909845E+01  0.00000E+00  9.000E+00
     -24     2     4     4     0     0 -1.550805091E+01 -7.471010867E+00  1.708228509E+02  1.890837652E+02  7.922063000E+01  0.00000E+00  9.000E+00
     -11     1     5     5     0     0 -7.683028349E+00  3.240286247E+01 -8.840963314E+01  9.447347592E+01  1.907348633E-06  0.00000E+00  9.000E+00
      12     1     5     5     0     0  5.268232763E+01 -1.789163164E+01 -6.912934014E+01  8.873783745E+01  1.651812370E-06  0.00000E+00  9.000E+00
      13     1     6     6     0     0 -2.785314752E+01  3.385816123E+00  1.391886037E+01  3.132085969E+01  4.129530925E-07  0.00000E+00  9.000E+00
     -14     1     6     6     0     0  1.234509661E+01 -1.085682699E+01  1.569039905E+02  1.577629055E+02  4.264961200E-06  0.00000E+00  9.000E+00
       5     1     3     3   502     0  8.018635078E+01 -9.405088359E+01 -4.043042667E+02  4.228000971E+02  4.750000000E+00  0.00000E+00  9.000E+00
      -5     1     4     4     0   504  7.700289937E+01 -4.317828725E+01  4.863833384E+01  1.009061991E+02  4.750000000E+00  0.00000E+00  9.000E+00
      21     1     1     2   504   512 -1.866804985E+02  1.301889509E+02 -6.992521251E+02  7.353586240E+02  1.078959322E-05  0.00000E+00  9.000E+00
</event>
<event>
     13  10001  1.00000E+00  2.15087E+01 -1.00000E+00  1.68077E-01
      21    -1     0     0   502   503  0.000000000E+00  0.000000000E+00  1.197010876E+03  1.197010876E+03  0.000000000E+00  0.00000E+00  9.000E+00
      21    -1     0     0   503   511  0.000000000E+00  0.000000000E+00 -5.703366907E+01  5.703366907E+01  0.000000000E+00  0.00000E+00  9.000E+00
       6     2     1     2   502     0  1.753115259E+02  4.121375401E+01  7.164741427E+02  7.585195461E+02  1.720000000E+02  0.00000E+00  9.000E+00
      -6     2     1     2     0   504 -1.542500857E+02 -4.557723905E+01  3.812812650E+02  4.481403538E+02  1.720000000E+02  0.00000E+00  9.000E+00
      24     2     3     3     0     0  1.714080912E+01  1.703236862E+01  1.791973335E+02  1.979023441E+02  8.043472209E+01  0.00000E+00  9.000E+00
     -24     2     4     4     0     0 -7.875990150E+01 -1.148686951E+01  3.221731723E+02  3.462715640E+02  9.886037046E+01  0.00000E+00  9.000E+00
     -11     1     5     5     0     0  8.269934147E+00 -2.129488143E+01  1.417825470E+02  1.436111222E+02  1.907348633E-06  0.00000E+00  9.000E+00
      12     1     5     5     0     0  8.870874973E+00  3.832725005E+01  3.741478656E+01  5.429122187E+01  8.259061849E-07  0.00000E+00  9.000E+00
      13     1     6     6     0     0  2.002966140E+01  5.040808957E+00  2.368360932E+01  3.142467886E+01  6.743495762E-07  0.00000E+00  9.000E+00
     -14     1     6     6     0     0 -9.878956290E+01 -1.652767847E+01  2.984895630E+02  3.148468851E+02  3.814697266E-06  0.00000E+00  9.000E+00
       5     1     3     3   502     0  1.581707168E+02  2.418138538E+01  5.372768092E+02  5.606172020E+02  4.750000000E+00  0.00000E+00  9.000E+00
      -5     1     4     4     0   504 -7.549018419E+01 -3.409036954E+01  5.910809268E+01  1.018687897E+02  4.750000000E+00  0.00000E+00  9.000E+00
      21     1     1     2   504   511 -2.106144023E+01  4.363485044E+00  4.222179889E+01  4.738464485E+01  4.768371582E-07  0.00000E+00  9.000E+00
</event>
<event>
     13  10001  1.00000E+00  6.00370E+01 -1.00000E+00  1.37531E-01
      21    -1     0     0   503   504  0.000000000E+00  0.000000000E+00  4.022182997E+02  4.022182997E+02  0.000000000E+00  0.00000E+00  9.000E+00
      21    -1     0     0   502   512  0.000000000E+00  0.000000000E+00 -2.663425663E+02  2.663425663E+02  0.000000000E+00  0.00000E+00  9.000E+00
       6     2     1     2   502     0 -1.741688740E+01 -3.100873341E+01  9.956583945E-01  1.756413415E+02  1.720000000E+02  0.00000E+00  9.000E+00
      -6     2     1     2     0   504  6.838615628E+01 -7.178520246E-01  2.801254726E+02  3.357550626E+02  1.720000000E+02  0.00000E+00  9.000E+00
      24     2     3     3     0     0 -7.284954120E+01  7.844285587E+00 -1.892272810E+00  1.077205138E+02  7.894010340E+01  0.00000E+00  9.000E+00
     -24     2     4     4     0     0  4.460446318E+00  3.770602747E+01  2.279266581E+02  2.445949307E+02  8.021520170E+01  0.00000E+00  9.000E+00
     -11     1     5     5     0     0 -1.964695459E+01 -5.270757767E+00 -3.729619277E+01  4.248281661E+01  1.581489940E-06  0.00000E+00  9.000E+00
      12     1     5     5     0     0 -5.320258661E+01  1.311504335E+01  3.540391996E+01  6.523769718E+01  1.066240300E-06  0.00000E+00  9.000E+00
      13     1     6     6     0     0  5.381381233E+00  1.128007681E+01 -2.424611590E+00  1.273099125E+01  2.230201594E-07  0.00000E+00  9.000E+00
     -14     1     6     6     0     0 -9.209349146E-01  2.642595065E+01  2.303512697E+02  2.318639395E+02  0.000000000E+00  0.00000E+00  9.000E+00
       5     1     3     3   502     0  5.543265380E+01 -3.885301900E+01  2.887931205E+00  6.792082773E+01  4.750000000E+00  0.00000E+00  9.000E+00
      -5     1     4     4     0   504  6.392570997E+01 -3.842387949E+01  5.219881447E+01  9.116013187E+01  4.750000000E+00  0.00000E+00  9.000E+00
      21     1     1     2   503   512 -5.096926888E+01  3.172658544E+01 -1.452453975E+02  1.571644619E+02  2.697398305E-06  0.00000E+00  9.000E+00
</event>
<event>
     13  10001  1.00000E+00  3.65503E+01 -1.00000E+00  1.50735E-01
      21    -1     0     0   502   503  0.000000000E+00  0.000000000E+00  1.706224586E+02  1.706224586E+02  0.000000000E+00  0.00000E+00  9.000E+00
      21    -1     0     0   503   511  0.000000000E+00  0.000000000E+00 -6.566615427E+02  6.566615427E+02  0.000000000E+00  0.00000E+00  9.000E+00
       6     2     1     2   502     0 -6.448846896E+01 -7.013164609E+01 -1.335954578E+01  1.970778726E+02  1.720000000E+02  0.00000E+00  9.000E+00
      -6     2     1     2     0   504  3.281859406E+01  8.837844829E+01 -4.535054376E+01  2.013168698E+02  1.720000000E+02  0.00000E+00  9.000E+00
      24     2     3     3     0     0 -3.819136277E+01 -1.082650870E+02  1.734559244E+01  1.413009497E+02  8.053061256E+01  0.00000E+00  9.000E+00
     -24     2     4     4     0     0 -1.678689185E+01  9.644367968E+01 -7.031062887E+01  1.450023908E+02  8.061591486E+01  0.00000E+00  9.000E+00
     -11     1     5     5     0     0 -3.380412750E+00 -5.477138230E+01  4.574766738E+01  7.144354821E+01  9.536743164E-07  0.00000E+00  9.000E+00
      12     1     5     5     0     0 -3.481095002E+01 -5.349370474E+01 -2.840207495E+01  6.985740154E+01  6.743495762E-07  0.00000E+00  9.000E+00
      13     1     6     6     0     0  1.464603771E+01  7.974877985E+01 -2.023917501E+01  8.357032077E+01  1.039242493E-06  0.00000E+00  9.000E+00
     -14     1     6     6     0     0 -3.143292956E+01  1.669489983E+01 -5.007145387E+01  6.143207007E+01  6.743495762E-07  0.00000E+00  9.000E+00
       5     1     3     3   502     0 -2.629710619E+01  3.813344095E+01 -3.070513822E+01  5.577692287E+01  4.750000000E+00  0.00000E+00  9.000E+00
      -5     1     4     4     0   504  4.960548591E+01 -8.065231392E+00  2.496008511E+01  5.631447894E+01  4.750000000E+00  0.00000E+00  9.000E+00
      21     1     1     2   504   511  3.166987490E+01 -1.824680219E+01 -4.273289946E+02  4.288892589E+02  5.394796609E-06  0.00000E+00  9.000E+00
</event>
<event>
     13  10001  1.00000E+00  1.14042E+02 -1.00000E+00  1.23604E-01
      21    -1     0     0   502   503  0.000000000E+00  0.000000000E+00  3.931866267E+02  3.931866267E+02  0.000000000E+00  0.00000E+00  9.000E+00
      21    -1     0     0   503   512  0.000000000E+00  0.000000000E+00 -3.181374747E+02  3.181374747E+02  0.000000000E+00  0.00000E+00  9.000E+00
       6     2     1     2   502     0 -8.878103736E+00  1.367358753E+02  1.670008668E+02  2.761318704E+02  1.720000000E+02  0.00000E+00  9.000E+00
      -6     2     1     2     0   504 -7.025431365E+01 -2.188555382E+02  2.531430110E+00  2.870954951E+02  1.720000000E+02  0.00000E+00  9.000E+00
      24     2     3     3     0     0 -3.304468367E+01  4.293868643E+01  1.459265105E+01  9.548646369E+01  7.725954551E+01  0.00000E+00  9.000E+00
     -24     2     4     4     0     0 -7.217605155E+01 -1.576517626E+02  6.204667731E+01  2.015722681E+02  8.196418978E+01  0.00000E+00  9.000E+00
     -11     1     5     5     0     0  8.683877662E+00  3.325938188E+01 -2.057654730E+01  4.006233285E+01  1.118282261E-06  0.00000E+00  9.000E+00
      12     1     5     5     0     0 -4.172856133E+01  9.679304548E+00  3.516919835E+01  5.542413084E+01  1.261592536E-06  0.00000E+00  9.000E+00
      13     1     6     6     0     0 -6.889104539E+01 -1.635971363E+02  7.026393633E+01  1.909110261E+02  3.303624740E-06  0.00000E+00  9.000E+00
     -14     1     6     6     0     0 -3.285006163E+00  5.945373685E+00 -8.217259023E+00  1.066124193E+01  5.331201500E-07  0.00000E+00  9.000E+00
       5     1     3     3   502     0  2.416657993E+01  9.379718885E+01  1.524082157E+02  1.806454067E+02  4.750000000E+00  0.00000E+00  9.000E+00
      -5     1     4     4     0   504  1.921737905E+00 -6.120377554E+01 -5.951524720E+01  8.552322705E+01  4.750000000E+00  0.00000E+00  9.000E+00
      21     1     1     2   504   512  7.913241738E+01  8.211966289E+01 -9.448314490E+01  1.480967359E+02  3.015782986E-06  0.00000E+00  9.000E+00
</event>
<event>
     13  10001  1.00000E+00  3.20372E+01 -1.00000E+00  1.54693E-01
       1    -1     0     0   511     0  0.000000000E+00  0.000000000E+00  9.497215618E+02  9.497215618E+02  0.000000000E+00  0.00000E+00  9.000E+00
      -1    -1     0     0     0   512  0.000000000E+00  0.000000000E+00 -5.010299065E+01  5.010299065E+01  0.000000000E+00  0.00000E+00  9.000E+00
       6     2     1     2   502     0  1.117857440E+02  2.498972837E+01  3.624695117E+02  4.172393629E+02  1.720000000E+02  0.00000E+00  9.000E+00
      -6     2     1     2     0   512 -8.162098600E+01 -1.419768978E+01  4.242072955E+02  4.651874776E+02  1.720000000E+02  0.00000E+00  9.000E+00
      24     2     3     3     0     0  1.233363595E+02  6.446734314E+01  3.187317923E+02  3.570110525E+02  8.061662507E+01  0.00000E+00  9.000E+00
     -24     2     4     4     0     0  2.353561097E+01 -1.398427791E+01  2.332706185E+02  2.471569005E+02  7.695366780E+01  0.00000E+00  9.000E+00
     -11     1     5     5     0     0  4.155297995E+00 -1.632226610E+01  3.243079832E+01  3.654366637E+01  8.259061849E-07  0.00000E+00  9.000E+00
      12     1     5     5     0     0  1.191810615E+02  8.078960924E+01  2.863009940E+02  3.204673861E+02  5.394796609E-06  0.00000E+00  9.000E+00
      13     1     6     6     0     0 -1.509953567E+01 -3.280805474E+01  1.378862646E+02  1.425376666E+02  2.697398305E-06  0.00000E+00  9.000E+00
     -14     1     6     6     0     0  3.863514664E+01  1.882377683E+01  9.538435393E+01  1.046192339E+02  0.000000000E+00  0.00000E+00  9.000E+00
       5     1     3     3   502     0 -1.155061552E+01 -3.947761477E+01  4.373771935E+01  6.022831046E+01  4.750000000E+00  0.00000E+00  9.000E+00
      -5     1     4     4     0   512 -1.051565970E+02 -2.134118764E-01  1.909366770E+02  2.180305771E+02  4.750000000E+00  0.00000E+00  9.000E+00
      21     1     1     2   511   502 -3.016475796E+01 -1.079203859E+01  1.129417639E+02  1.173977119E+02  1.348699152E-06  0.00000E+00  9.000E+00
</event>
<event>
     13  10001  1.00000E+00  1.41915E+02 -1.00000E+00  1.19493E-01
       2    -1     0     0   503     0  0.000000000E+00  0.000000000E+00  7.065184330E+02  7.065184330E+02  0.000000000E+00  0.00000E+00  9.000E+00
      21    -1     0     0   502   503  0.000000000E+00  0.000000000E+00 -1.544583776E+02  1.544583776E+02  0.000000000E+00  0.00000E+00  9.000E+00
       6     2     1     2   502     0  5.057141574E+01 -1.325777994E+02  2.688974552E+02  3.493195992E+02  1.720000000E+02  0.00000E+00  9.000E+00
      -6     2     1     2     0   504 -1.657397093E+02  4.965586608E+01  6.687089878E+01  2.529645694E+02  1.720000000E+02  0.00000E+00  9.000E+00
      24     2     3     3     0     0 -6.647369431E+00 -1.829961939E+01  1.618307112E+02  1.825282865E+02  8.214823628E+01  0.00000E+00  9.000E+00
     -24     2     4     4     0     0 -1.209177049E+02  1.001420173E+02  5.198573684E+01  1.836681475E+02  7.988714897E+01  0.00000E+00  9.000E+00
     -11     1     5     5     0     0 -3.822360547E+01 -3.160826231E+01  8.521333289E+01  9.859735475E+01  1.651812370E-06  0.00000E+00  9.000E+00
      12     1     5     5     0     0  3.157623604E+01  1.330864292E+01  7.661737827E+01  8.393093180E+01  9.536743164E-07  0.00000E+00  9.000E+00
      13     1     6     6     0     0 -4.724285494E+01  1.779342855E+01  5.296317853E+01  7.316824258E+01  6.743495762E-07  0.00000E+00  9.000E+00
     -14     1     6     6     0     0 -7.367484998E+01  8.234858878E+01 -9.774416884E-01  1.104999049E+02  2.591174399E-06  0.00000E+00  9.000E+00
       5     1     3     3   502     0  5.721878517E+01 -1.142781800E+02  1.070667440E+02  1.667913127E+02  4.750000000E+00  0.00000E+00  9.000E+00
      -5     1     4     4     0   504 -4.482200443E+01 -5.048615125E+01  1.488516194E+01  6.929642195E+01  4.750000000E+00  0.00000E+00  9.000E+00
       2     1     1     2   504     0  1.151682936E+02  8.292193332E+01  2.162917015E+02  2.586926420E+02  0.000000000E+00  0.00000E+00  9.000E+00
</event>
<event>
     13  10001  1.00000E+00  5.53117E+01 -1.00000E+00  1.39546E-01
      21    -1     0     0   503   504  0.000000000E+00  0.000000000E+00  4.881708750E+02  4.881708750E+02  0.000000000E+00  0.00000E+00  9.000E+00
      21    -1     0     0   511   503  0.000000000E+00  0.000000000E+00 -5.941161060E+02  5.941161060E+02  0.000000000E+00  0.00000E+00  9.000E+00
       6     2     1     2   502     0  2.177798571E+02  2.393091370E+02 -3.298969997E+02  4.930648635E+02  1.720000000E+02  0.00000E+00  9.000E+00
      -6     2     1     2     0   504 -2.152950788E+02 -1.840532838E+02  3.312232940E+02  4.685300980E+02  1.720000000E+02  0.00000E+00  9.000E+00
      24     2     3     3     0     0  1.204488949E+02  1.578362792E+02 -1.134670807E+02  2.421154361E+02  7.952910597E+01  0.00000E+00  9.000E+00
     -24     2     4     4     0     0 -1.350732818E+02 -1.935548951E+02  2.673104490E+02  3.654125360E+02  7.976939551E+01  0.00000E+00  9.000E+00
     -11     1     5     5     0     0  3.793983280E+01  1.145027904E+02 -6.116061952E+01  1.352440066E+02  1.784161275E-06  0.00000E+00  9.000E+00
      12     1     5     5     0     0  8.250906212E+01  4.333348877E+01 -5.230646116E+01  1.068714296E+02  1.907348633E-06  0.00000E+00  9.000E+00
      13     1     6     6     0     0 -9.995373738E+01 -9.706534337E+01  1.098245304E+02  1.774087314E+02  4.264961200E-06  0.00000E+00  9.000E+00
     -14     1     6     6     0     0 -3.511954438E+01 -9.648955174E+01  1.574859185E+02  1.880038046E+02  2.697398305E-06  0.00000E+00  9.000E+00
       5     1     3     3   502     0  9.733096217E+01  8.147285784E+01 -2.164299190E+02  2.509494274E+02  4.750000000E+00  0.00000E+00  9.000E+00
      -5     1     4     4     0   504 -8.022179705E+01  9.501611267E+00  6.391284506E+01  1.031175620E+02  4.750000000E+00  0.00000E+00  9.000E+00
      21     1     1     2   511   502 -2.484778280E+00 -5.525585320E+01 -1.072715253E+02  1.206920195E+02  1.348699152E-06  0.00000E+00  9.000E+00
</event>
<event>
     13  10001  1.00000E+00  3.24290E+01 -1.00000E+00  1.54319E-01
      21    -1     0     0   502   503  0.000000000E+00  0.000000000E+00  3.347251587E+02  3.347251587E+02  0.000000000E+00  0.00000E+00  9.000E+00
      -3    -1     0     0     0   504  0.000000000E+00  0.000000000E+00 -8.189828321E+02  8.189828321E+02  0.000000000E+00  0.00000E+00  9.000E+00
       6     2     1     2   502     0 -1.788208991E+02  8.396167666E+01  2.448843102E+02  3.585788651E+02  1.720000000E+02  0.00000E+00  9.000E+00
      -6     2     1     2     0   504  1.684615896E+02 -5.323182457E+01 -4.416821468E+02  5.058458788E+02  1.720000000E+02  0.00000E+00  9.000E+00
      24     2     3     3     0     0 -1.804645327E+02  2.634347566E+01  2.183080490E+02  2.949281088E+02  7.786371970E+01  0.00000E+00  9.000E+00
     -24     2     4     4     0     0  4.097515516E+01  1.151588054E+01 -2.225141883E+02  2.441166049E+02  9.093279912E+01  0.00000E+00  9.000E+00
     -11     1     5     5     0     0 -1.147152421E+02  5.304890805E+01  1.533569814E+02  1.987262870E+02  3.303624740E-06  0.00000E+00  9.000E+00
      12     1     5     5     0     0 -6.574929059E+01 -2.670543239E+01  6.495106760E+01  9.620182178E+01  1.348699152E-06  0.00000E+00  9.000E+00
      13     1     6     6     0     0  3.765900341E+01 -2.876176669E+01 -1.770733229E+02  1.833041229E+02  2.697398305E-06  0.00000E+00  9.000E+00
     -14     1     6     6     0     0  3.316151750E+00  4.027764723E+01 -4.544086536E+01  6.081248206E+01  6.743495762E-07  0.00000E+00  9.000E+00
       5     1     3     3   502     0  1.643633550E+00  5.761820100E+01  2.657626124E+01  6.365075631E+01  4.750000000E+00  0.00000E+00  9.000E+00
      -5     1     4     4     0   504  1.274864345E+02 -6.474770511E+01 -2.191679585E+02  2.617292739E+02  4.750000000E+00  0.00000E+00  9.000E+00
      -3     1     1     2     0   503  1.035930949E+01 -3.072985209E+01 -2.874598369E+02  2.892832469E+02  5.394796609E-06  0.00000E+00  9.000E+00
</event>
<event>
     13  10001  1.00000E+00  2.81181E+01 -1.00000E+00  1.58828E-01
      21    -1     0     0   503   504  0.000000000E+00  0.000000000E+00  2.617310508E+02  2.617310508E+02  0.000000000E+00  0.00000E+00  9.000E+00
      21    -1     0     0   511   503  0.000000000E+00  0.000000000E+00 -4.589872032E+02  4.589872032E+02  0.000000000E+00  0.00000E+00  9.000E+00
       6     2     1     2   502     0 -3.194720365E+01  1.214789505E+02  5.190622509E+01  2.192168229E+02  1.720000000E+02  0.00000E+00  9.000E+00
      -6     2     1     2     0   504  1.526372807E+01 -9.884512159E+01  4.664537404E+01  2.043602955E+02  1.720000000E+02  0.00000E+00  9.000E+00
      24     2     3     3     0     0 -6.701107908E+01  7.968780835E+01  6.913148686E+01  1.618125803E+02  1.027789723E+02  0.00000E+00  9.000E+00
     -24     2     4     4     0     0  4.546565516E+01  2.858680285E+00  2.460979516E+01  9.589855592E+01  8.071922422E+01  0.00000E+00  9.000E+00
     -11     1     5     5     0     0 -8.301141188E+01  2.618937633E+01  2.478236213E+01  9.050383090E+01  1.877309769E-06  0.00000E+00  9.000E+00
      12     1     5     5     0     0  1.600033280E+01  5.349843201E+01  4.434912473E+01  7.130874941E+01  1.168007728E-06  0.00000E+00  9.000E+00
      13     1     6     6     0     0  1.130557088E+01 -3.787455281E+01  1.049157086E+01  4.089462976E+01  9.000103993E-07  0.00000E+00  9.000E+00
     -14     1     6     6     0     0  3.416008428E+01  4.073323310E+01  1.411822430E+01  5.500392617E+01  9.973764736E-07  0.00000E+00  9.000E+00
       5     1     3     3   502     0  3.506387543E+01  4.179114219E+01 -1.722526177E+01  5.740424260E+01  4.750000000E+00  0.00000E+00  9.000E+00
      -5     1     4     4     0   504 -3.020192709E+01 -1.017038019E+02  2.203557888E+01  1.084617396E+02  4.750000000E+00  0.00000E+00  9.000E+00
      21     1     1     2   511   502  1.668347558E+01 -2.263382895E+01 -2.958077516E+02  2.971411356E+02  6.607249480E-06  0.00000E+00  9.000E+00
</event>
<event>
     13  10001  1.00000E+00  2.82866E+01 -1.00000E+00  1.58633E-01
      21    -1     0     0   502   503  0.000000000E+00  0.000000000E+00  4.844740824E+02  4.844740824E+02  0.000000000E+00  0.00000E+00  9.000E+00
      21    -1     0     0   512   504  0.000000000E+00  0.000000000E+00 -8.439684736E+01  8.439684736E+01  0.000000000E+00  0.00000E+00  9.000E+00
       6     2     1     2   502     0  6.988661534E+01 -2.013400579E+01  2.042941930E+02  2.767844550E+02  1.720000000E+02  0.00000E+00  9.000E+00
      -6     2     1     2     0   504 -7.096628744E+01 -8.132025831E+00  1.827953419E+02  2.609606883E+02  1.720000000E+02  0.00000E+00  9.000E+00
      24     2     3     3     0     0  1.002037040E+02  2.584925275E+01  1.318044280E+02  1.856202380E+02  7.983419898E+01  0.00000E+00  9.000E+00
     -24     2     4     4     0     0  1.576420367E+01  3.267800983E+01  6.619878775E+01  1.099475894E+02  7.993641513E+01  0.00000E+00  9.000E+00
     -11     1     5     5     0     0  5.939218463E+01  4.442745062E+01  4.198306911E+01  8.522797696E+01  1.907348633E-06  0.00000E+00  9.000E+00
      12     1     5     5     0     0  4.081151936E+01 -1.857819787E+01  8.982135893E+01  1.003922610E+02  1.651812370E-06  0.00000E+00  9.000E+00
      13     1     6     6     0     0  4.324575995E+01 -8.611012603E-01  2.411312357E+01  4.952151025E+01  1.066240300E-06  0.00000E+00  9.000E+00
     -14     1     6     6     0     0 -2.748155628E+01  3.353911109E+01  4.208566418E+01  6.042607912E+01  1.651812370E-06  0.00000E+00  9.000E+00
       5     1     3     3   502     0 -3.031708865E+01 -4.598325854E+01  7.248976500E+01  9.116421699E+01  4.750000000E+00  0.00000E+00  9.000E+00
      -5     1     4     4     0   504 -8.673049111E+01 -4.081003566E+01  1.165965541E+02  1.510130989E+02  4.750000000E+00  0.00000E+00  9.000E+00
      21     1     1     2   512   503  1.079672100E+00  2.826603163E+01  1.298770013E+01  3.112578658E+01  5.331201500E-07  0.00000E+00  9.000E+00
</event>
<event>
     13  10001  1.00000E+00  2.12926E+01 -1.00000E+00  1.68448E-01
      -1    -1     0     0     0   511  0.000000000E+00  0.000000000E+00  2.378976090E+02  2.378976090E+02  0.000000000E+00  0.00000E+00  9.000E+00
       1    -1     0     0   502     0  0.000000000E+00  0.000000000E+00 -8.666668970E+02  8.666668970E+02  0.000000000E+00  0.00000E+00  9.000E+00
       6     2     1     2   502     0 -7.731992918E+01  1.304676238E+02  1.540762786E+02  2.762673921E+02  1.720000000E+02  0.00000E+00  9.000E+00
      -6     2     1     2     0   512  6.583582151E+01 -1.125374356E+02 -7.767074658E+02  8.061374059E+02  1.720000000E+02  0.00000E+00  9.000E+00
      24     2     3     3     0     0 -9.785321514E+01  1.454567220E+02  1.601162192E+02  2.497092996E+02  7.736033201E+01  0.00000E+00  9.000E+00
     -24     2     4     4     0     0  4.402607485E+01 -6.252370705E+01 -7.147887084E+02  7.234722191E+02  8.149628809E+01  0.00000E+00  9.000E+00
     -11     1     5     5     0     0 -4.469540411E+01  1.333993325E+01  5.821613753E+01  7.459726293E+01  2.236564522E-06  0.00000E+00  9.000E+00
      12     1     5     5     0     0 -5.315781103E+01  1.321167887E+02  1.019000817E+02  1.751120367E+02  8.203816669E-06  0.00000E+00  9.000E+00
      13     1     6     6     0     0 -1.249850579E+01 -2.823838837E+01 -8.908052813E+01  9.428127978E+01  1.651812370E-06  0.00000E+00  9.000E+00
     -14     1     6     6     0     0  5.652458063E+01 -3.428531869E+01 -6.257081802E+02  6.291909393E+02  1.321449896E-05  0.00000E+00  9.000E+00
       5     1     3     3   502     0  2.053328596E+01 -1.498909817E+01 -6.039940586E+00  2.655809252E+01  4.750000000E+00  0.00000E+00  9.000E+00
      -5     1     4     4     0   512  2.180974666E+01 -5.001372853E+01 -6.191875739E+01  8.266518680E+01  4.750000000E+00  0.00000E+00  9.000E+00
      21     1     1     2   512   511  1.148410768E+01 -1.793018823E+01 -6.138100818E+00  2.215970804E+01  4.768371582E-07  0.00000E+00  9.000E+00
</event>
<event>
     13  10001  1.00000E+00  4.16454E+01 -1.00000E+00  1.47017E-01
       1    -1     0     0   502     0  0.000000000E+00  0.000000000E+00  3.478318790E+02  3.478318790E+02  0.000000000E+00  0.00000E+00  9.000E+00
      -1    -1     0     0     0   513  0.000000000E+00  0.000000000E+00 -5.006151893E+02  5.006151893E+02  0.000000000E+00  0.00000E+00  9.000E+00
       6     2     1     2   502     0  7.228959233E+01 -1.986752927E+02 -3.762927892E+02  4.646266461E+02  1.720000000E+02  0.00000E+00  9.000E+00
      -6     2     1     2     0   512 -3.957594355E+01  1.729041051E+02  2.346144609E+02  3.407198705E+02  1.720000000E+02  0.00000E+00  9.000E+00
      24     2     3     3     0     0  7.011688469E+01 -1.244326709E+02 -3.486792408E+02  3.852430325E+02  8.021916253E+01  0.00000E+00  9.000E+00
     -24     2     4     4     0     0  3.881856976E+01  1.117502730E+02  1.030978361E+02  1.757814699E+02  7.921462276E+01  0.00000E+00  9.000E+00
     -11     1     5     5     0     0  8.434284683E+01 -1.032802358E+02 -2.501599782E+02  2.834793424E+02  5.394796609E-06  0.00000E+00  9.000E+00
      12     1     5     5     0     0 -1.422596214E+01 -2.115243516E+01 -9.851926262E+01  1.017636901E+02  1.348699152E-06  0.00000E+00  9.000E+00
      13     1     6     6     0     0  3.692398419E+01  2.735596841E+01  7.280579451E+01  8.609537345E+01  1.651812370E-06  0.00000E+00  9.000E+00
     -14     1     6     6     0     0  1.894585571E+00  8.439430460E+01  3.029204159E+01  8.968609640E+01  2.336015456E-06  0.00000E+00  9.000E+00
       5     1     3     3   502     0  2.172707640E+00 -7.424262184E+01 -2.761354839E+01  7.938361362E+01  4.750000000E+00  0.00000E+00  9.000E+00
      -5     1     4     4     0   512 -7.839451332E+01  6.115383205E+01  1.315166248E+02  1.649384006E+02  4.750000000E+00  0.00000E+00  9.000E+00
      21     1     1     2   512   513 -3.271364878E+01  2.577118768E+01 -1.110498203E+01  4.310055169E+01  0.000000000E+00  0.00000E+00  9.000E+00
</event>
<event>
     13  10001  1.00000E+00  1.62843E+02 -1.00000E+00  1.17047E-01
      21    -1     0     0   503   504  0.000000000E+00  0.000000000E+00  1.650427882E+02  1.650427882E+02  0.000000000E+00  0.00000E+00  9.000E+00
       2    -1     0     0   502     0  0.000000000E+00  0.000000000E+00 -9.876444897E+02  9.876444897E+02  0.000000000E+00  0.00000E+00  9.000E+00
       6     2     1     2   502     0  5.348754184E+01 -3.308542461E+01 -2.603707928E+02  3.183276805E+02  1.720000000E+02  0.00000E+00  9.000E+00
      -6     2     1     2     0   504  1.045960799E+02 -5.998006082E+00  4.441695451E+01  2.062357434E+02  1.720000000E+02  0.00000E+00  9.000E+00
      24     2     3     3     0     0  4.567981685E+01 -8.704401012E+01 -1.602981014E+02  2.042680663E+02  7.979132949E+01  0.00000E+00  9.000E+00
     -24     2     4     4     0     0  1.408832921E+02 -1.624510456E+01  3.666855736E+01  1.674495995E+02  8.113433227E+01  0.00000E+00  9.000E+00
     -11     1     5     5     0     0 -1.220624354E+01  1.031255699E+00  2.083254571E-01  1.225150069E+01  5.034382174E-07  0.00000E+00  9.000E+00
      12     1     5     5     0     0  5.788606038E+01 -8.807526582E+01 -1.605064268E+02  1.920165657E+02  2.697398305E-06  0.00000E+00  9.000E+00
      13     1     6     6     0     0  8.013167615E+01 -3.403406048E+01  5.319542051E+01  1.020252692E+02  1.348699152E-06  0.00000E+00  9.000E+00
     -14     1     6     6     0     0  6.075161594E+01  1.778895592E+01 -1.652686315E+01  6.542433032E+01  1.410503336E-06  0.00000E+00  9.000E+00
       5     1     3     3   502     0  7.807724988E+00  5.395858551E+01 -1.000726914E+02  1.140596142E+02  4.750000000E+00  0.00000E+00  9.000E+00
      -5     1     4     4     0   504 -3.628721220E+01  1.024709848E+01  7.748397144E+00  3.878614386E+01  4.750000000E+00  0.00000E+00  9.000E+00
       2     1     1     2   503     0 -1.580836217E+02  3.908343070E+01 -6.066478632E+02  6.281238540E+02  7.629394531E-06  0.00000E+00  9.000E+00
</event>
<event>
     13  10001  1.00000E+00  3.69274E+01 -1.00000E+00  1.50436E-01
       2    -1     0     0   511     0  0.000000000E+00  0.000000000E+00  8.623399002E+02  8.623399002E+02  0.000000000E+00  0.00000E+00  9.000E+00
      -2    -1     0     0     0   512  0.000000000E+00  0.000000000E+00 -1.332991080E+02  1.332991080E+02  0.000000000E+00  0.00000E+00  9.000E+00
       6     2     1     2   502     0 -5.663209104E+01 -2.072885213E+02  2.078477157E+02  3.449063608E+02  1.720000000E+02  0.00000E+00  9.000E+00
      -6     2     1     2     0   512  4.131377048E+01  2.408888054E+02  2.894035373E+02  4.160200135E+02  1.720000000E+02  0.00000E+00  9.000E+00
      24     2     3     3     0     0  2.439220347E+01 -5.432503647E+01  8.762413305E+01  1.341006770E+02  8.221200464E+01  0.00000E+00  9.000E+00
     -24     2     4     4     0     0  6.177824355E+01  2.451427783E+02  2.920192884E+02  3.944261348E+02  7.990730767E+01  0.00000E+00  9.000E+00
     -11     1     5     5     0     0 -9.618702559E+00 -5.247453338E+01  8.445326382E+01  9.989219120E+01  1.651812370E-06  0.00000E+00  9.000E+00
      12     1     5     5     0     0  3.401090603E+01 -1.850503083E+00  3.170869234E+00  3.420848582E+01  7.805705579E-07  0.00000E+00  9.000E+00
      13     1     6     6     0     0  2.797077488E+01  7.591425558E+01  4.347434343E+01  9.184419951E+01  2.236564522E-06  0.00000E+00  9.000E+00
     -14     1     6     6     0     0  3.380746866E+01  1.692285228E+02  2.485449450E+02  3.025819352E+02  6.031565972E-06  0.00000E+00  9.000E+00
       5     1     3     3   502     0 -8.102429451E+01 -1.529634848E+02  1.202235827E+02  2.108056838E+02  4.750000000E+00  0.00000E+00  9.000E+00
      -5     1     4     4     0   512 -2.046447307E+01 -4.253972890E+00 -2.615751169E+00  2.159387870E+01  4.750000000E+00  0.00000E+00  9.000E+00
      21     1     1     2   511   502  1.531832056E+01 -3.360028419E+01  2.317895392E+02  2.347126340E+02  2.697398305E-06  0.00000E+00  9.000E+00
</event>
<event>
     13  10001  1.00000E+00  5.16219E+01 -1.00000E+00  1.41291E-01
       4    -1     0     0   503     0  0.000000000E+00  0.000000000E+00  8.767528327E+02  8.767528327E+02  0.000000000E+00  0.00000E+00  9.000E+00
      21    -1     0     0   502   503  0.000000000E+00  0.000000000E+00 -8.601888051E+01  8.601888051E+01  0.000000000E+00  0.00000E+00  9.000E+00
       6     2     1     2   502     0 -7.795815393E+01 -3.579356573E+01  1.109603206E+02  2.219343278E+02  1.720000000E+02  0.00000E+00  9.000E+00
      -6     2     1     2     0   504  1.275737614E+02  2.154173892E+01  3.805823292E+02  4.372253657E+02  1.720000000E+02  0.00000E+00  9.000E+00
      24     2     3     3     0     0 -4.166701123E+01  4.347923333E+01  8.381253979E+01  1.304969820E+02  7.986449101E+01  0.00000E+00  9.000E+00
     -24     2     4     4     0     0  1.240234720E+02 -1.923678727E+01  3.634493631E+02  3.925980895E+02  7.928395001E+01  0.00000E+00  9.000E+00
     -11     1     5     5     0     0 -3.411363859E+01  2.414539701E+01  9.719510191E+01  1.057999450E+02  1.907348633E-06  0.00000E+00  9.000E+00
      12     1     5     5     0     0 -7.553372640E+00  1.933383632E+01 -1.338256212E+01  2.469703694E+01  1.203954809E-06  0.00000E+00  9.000E+00
      13     1     6     6     0     0  4.318708368E+01  2.517727381E+01  1.861133497E+02  1.927101405E+02  6.031565972E-06  0.00000E+00  9.000E+00
     -14     1     6     6     0     0  8.083638834E+01 -4.441406108E+01  1.773360134E+02  1.998879490E+02  5.046370146E-06  0.00000E+00  9.000E+00
       5     1     3     3   502     0 -3.629114270E+01 -7.927279905E+01  2.714778077E+01  9.143734581E+01  4.750000000E+00  0.00000E+00  9.000E+00
      -5     1     4     4     0   504  3.550289354E+00  4.077852619E+01  1.713296605E+01  4.462727617E+01  4.750000000E+00  0.00000E+00  9.000E+00
       4     1     1     2   504     0 -4.961560745E+01  1.425182680E+01  2.991913024E+02  3.036120197E+02  5.394796609E-06  0.00000E+00  9.000E+00
</event>
<event>
     13  10001  1.00000E+00  2.72094E+01 -1.00000E+00  1.59905E-01
      21    -1     0     0   511   503  0.000000000E+00  0.000000000E+00  1.699289888E+02  1.699289888E+02  0.000000000E+00  0.00000E+00  9.000E+00
      21    -1     0     0   503   504  0.000000000E+00  0.000000000E+00 -3.472467909E+02  3.472467909E+02  0.000000000E+00  0.00000E+00  9.000E+00
       6     2     1     2   502     0 -9.256370118E+01  3.879638381E+01 -7.863515581E+00  1.992963448E+02  1.720000000E+02  0.00000E+00  9.000E+00
      -6     2     1     2     0   504  8.463571552E+01 -6.482523165E+01 -1.946607418E+02  2.807887452E+02  1.720000000E+02  0.00000E+00  9.000E+00
      24     2     3     3     0     0 -1.123974724E+02  9.422347393E+00  3.487728395E+01  1.435688745E+02  8.169225398E+01  0.00000E+00  9.000E+00
     -24     2     4     4     0     0  1.150771297E+02 -7.509527137E+01 -1.191773304E+02  1.986153838E+02  7.976709247E+01  0.00000E+00  9.000E+00
     -11     1     5     5     0     0  2.557015503E+00 -7.708113840E+00 -1.502927015E+01  1.708310008E+01  7.907449699E-07  0.00000E+00  9.000E+00
      12     1     5     5     0     0 -1.149544879E+02  1.713046123E+01  4.990655410E+01  1.264857745E+02  2.697398305E-06  0.00000E+00  9.000E+00
      13     1     6     6     0     0  3.639608851E+01 -6.997588907E+01 -7.159566930E+01  1.065234255E+02  1.651812370E-06  0.00000E+00  9.000E+00
     -14     1     6     6     0     0  7.868104120E+01 -5.119382307E+00 -4.758166106E+01  9.209195833E+01  9.536743164E-07  0.00000E+00  9.000E+00
       5     1     3     3   502     0  1.983377124E+01  2.937403642E+01 -4.274079954E+01  5.572747027E+01  4.750000000E+00  0.00000E+00  9.000E+00
      -5     1     4     4     0   504 -3.044141418E+01  1.027003972E+01 -7.548341146E+01  8.217336137E+01  4.750000000E+00  0.00000E+00  9.000E+00
      21     1     1     2   511   502  7.927985665E+00  2.602884784E+01  2.520645536E+01  3.709068978E+01  3.371747881E-07  0.00000E+00  9.000E+00
</event>
<event>
     13  10001  1.00000E+00  5.31379E+01 -1.00000E+00  1.40554E-01
      21    -1     0     0   502   503  0.000000000E+00  0.000000000E+00  4.861064089E+02  4.861064089E+02  0.000000000E+00  0.00000E+00  9.000E+00
      21    -1     0     0   512   504  0.000000000E+00  0.000000000E+00 -1.654862328E+02  1.654862328E+02  0.000000000E+00  0.00000E+00  9.000E+00
       6     2     1     2   502     0 -3.147010608E+01 -1.771661113E+01  3.776544807E+02  4.165466992E+02  1.720000000E+02  0.00000E+00  9.000E+00
      -6     2     1     2     0   504  5.639099334E+00 -2.872044258E+01 -3.769449527E+01  1.784980063E+02  1.720000000E+02  0.00000E+00  9.000E+00
      24     2     3     3     0     0 -4.456483718E+01 -8.649584907E+00  3.869416839E+02  3.975073298E+02  7.891369000E+01  0.00000E+00  9.000E+00
     -24     2     4     4     0     0  5.683716147E+01  7.628089621E+00  1.135001795E+01  9.868332003E+01  7.950423933E+01  0.00000E+00  9.000E+00
     -11     1     5     5     0     0  4.491086985E+00  2.825941043E+01  1.524947449E+02  1.551560871E+02  5.046370146E-06  0.00000E+00  9.000E+00
      12     1     5     5     0     0 -4.905592417E+01 -3.690899534E+01  2.344469390E+02  2.423512427E+02  3.814697266E-06  0.00000E+00  9.000E+00
      13     1     6     6     0     0 -8.838884298E+00  2.788145181E+01  1.927524564E+00  2.931239638E+01  8.987759858E-07  0.00000E+00  9.000E+00
     -14     1     6     6     0     0  6.567604576E+01 -2.025336219E+01  9.422493388E+00  6.937092365E+01  1.018524616E-06  0.00000E+00  9.000E+00
       5     1     3     3   502     0  1.309473111E+01 -9.067026221E+00 -9.287203198E+00  1.903936949E+01  4.750000000E+00  0.00000E+00  9.000E+00
      -5     1     4     4     0   504 -5.119806213E+01 -3.634853220E+01 -4.904451323E+01  7.981468622E+01  4.750000000E+00  0.00000E+00  9.000E+00
      21     1     1     2   512   503  2.583100674E+01  4.643705371E+01 -1.933980934E+01  5.654793623E+01  4.129530925E-07  0.00000E+00  9.000E+00
</event>
<event>
     13  10001  1.00000E+00  1.75372E+02 -1.00000E+00  1.15771E-01
      21    -1     0     0   502   503  0.000000000E+00  0.000000000E+00  1.069201588E+03  1.069201588E+03  0.000000000E+00  0.00000E+00  9.000E+00
      21    -1     0     0   503   511  0.000000000E+00  0.000000000E+00 -1.641280108E+02  1.641280108E+02  0.000000000E+00  0.00000E+00  9.000E+00
       6     2     1     2   502     0  9.427833172E+01 -2.173311702E+01  7.331967178E+02  7.592905631E+02  1.720000000E+02  0.00000E+00  9.000E+00
      -6     2     1     2     0   504 -1.295589270E+02 -1.500539209E+02  1.337266607E+02  2.945649581E+02  1.720000000E+02  0.00000E+00  9.000E+00
      24     2     3     3     0     0  7.600280486E+01 -2.970490012E+01  2.239899666E+02  2.496714680E+02  7.419925413E+01  0.00000E+00  9.000E+00
     -24     2     4     4     0     0 -9.369899576E+01 -1.198447378E+02  1.646492628E+02  2.381974210E+02  8.053799509E+01  0.00000E+00  9.000E+00
     -11     1     5     5     0     0  6.665581657E+01  1.757678985E+00  1.942662651E+02  2.053910151E+02  0.000000000E+00  0.00000E+00  9.000E+00
      12     1     5     5     0     0  9.346988292E+00 -3.146257910E+01  2.972370157E+01  4.428045290E+01  7.539457465E-07  0.00000E+00  9.000E+00
      13     1     6     6     0     0 -1.203538436E+01 -8.015221152E+01  8.444964234E+01  1.170511409E+02  1.907348633E-06  0.00000E+00  9.000E+00
     -14     1     6     6     0     0 -8.166361140E+01 -3.969252624E+01  8.019962050E+01  1.211462801E+02  1.907348633E-06  0.00000E+00  9.000E+00
       5     1     3     3   502     0  1.827552685E+01  7.971783097E+00  5.092067512E+02  5.096190952E+02  4.750000000E+00  0.00000E+00  9.000E+00
      -5     1     4     4     0   504 -3.585993125E+01 -3.020918311E+01 -3.092260210E+01  5.636753706E+01  4.750000000E+00  0.00000E+00  9.000E+00
      21     1     1     2   504   511  3.528059529E+01  1.717870379E+02  3.815019837E+01  1.794740773E+02  3.438521648E-06  0.00000E+00  9.000E+00
</event>
<event>
     13  10001  1.00000E+00  5.26081E+01 -1.00000E+00  1.40808E-01
      21    -1     0     0   502   512  0.000000000E+00  0.000000000E+00  1.280170557E+02  1.280170557E+02  0.000000000E+00  0.00000E+00  9.000E+00
      21    -1     0     0   503   504  0.000000000E+00  0.000000000E+00 -4.378537934E+02  4.378537934E+02  0.000000000E+00  0.00000E+00  9.000E+00
       6     2     1     2   502     0  1.223584987E+02 -1.246454702E+01 -1.329464063E+02  2.497713236E+02  1.720000000E+02  0.00000E+00  9.000E+00
      -6     2     1     2     0   504 -6.990377067E+01  1.647881331E+01 -1.852956157E+02  2.628241877E+02  1.720000000E+02  0.00000E+00  9.000E+00
      24     2     3     3     0     0  7.230634576E+01  2.845907319E+01 -5.557071000E+00  1.068357928E+02  7.310868014E+01  0.00000E+00  9.000E+00
     -24     2     4     4     0     0 -1.007517586E+02 -2.853224700E+01 -1.348782305E+02  1.883791130E+02  7.955845135E+01  0.00000E+00  9.000E+00
     -11     1     5     5     0     0  1.474472295E+01  3.304510463E+01  2.252698124E+01  4.262453141E+01  1.261592536E-06  0.00000E+00  9.000E+00
      12     1     5     5     0     0  5.756162281E+01 -4.586031440E+00 -2.808405224E+01  6.421126143E+01  8.920806376E-07  0.00000E+00  9.000E+00
      13     1     6     6     0     0 -8.583674373E+01 -4.463483790E+01 -1.354129117E+02  1.664237723E+02  2.697398305E-06  0.00000E+00  9.000E+00
     -14     1     6     6     0     0 -1.491501490E+01  1.610259090E+01  5.346812036E-01  2.195534075E+01  5.322343513E-07  0.00000E+00  9.000E+00
       5     1     3     3   502     0  5.005215296E+01 -4.092362020E+01 -1.273893353E+02  1.429355307E+02  4.750000000E+00  0.00000E+00  9.000E+00
      -5     1     4     4     0   504  3.084798796E+01  4.501106030E+01 -5.041738516E+01  7.444507463E+01  4.750000000E+00  0.00000E+00  9.000E+00
      21     1     1     2   503   512 -5.245472804E+01 -4.014266286E+00  8.405284236E+00  5.327533792E+01  4.915124924E-07  0.00000E+00  9.000E+00
</event>
<event>
     13  10001  1.00000E+00  4.91488E+01 -1.00000E+00  1.42559E-01
      21    -1     0     0   502   503  0.000000000E+00  0.000000000E+00  5.155181783E+02  5.155181783E+02  0.000000000E+00  0.00000E+00  9.000E+00
      21    -1     0     0   503   511  0.000000000E+00  0.000000000E+00 -4.646279523E+02  4.646279523E+02  0.000000000E+00  0.00000E+00  9.000E+00
       6     2     1     2   502     0 -1.278902871E+02 -8.224911719E+01  4.441795511E+02  5.000003165E+02  1.720000000E+02  0.00000E+00  9.000E+00
      -6     2     1     2     0   504  8.064792841E+01  6.869299555E+01 -2.141758208E+02  2.944114437E+02  1.720000000E+02  0.00000E+00  9.000E+00
      24     2     3     3     0     0 -1.498861376E+01 -4.736626889E+01  1.112718178E+02  1.467104605E+02  8.169651032E+01  0.00000E+00  9.000E+00
     -24     2     4     4     0     0 -2.130230528E+01  6.489385517E+01 -1.425770024E+02  1.696827906E+02  6.163641103E+01  0.00000E+00  9.000E+00
     -11     1     5     5     0     0  3.212715940E+01 -5.519556227E+00  3.742682286E+01  4.963251899E+01  0.000000000E+00  0.00000E+00  9.000E+00
      12     1     5     5     0     0 -4.711577315E+01 -4.184671266E+01  7.384499498E+01  9.707794149E+01  1.907348633E-06  0.00000E+00  9.000E+00
      13     1     6     6     0     0  9.425815983E+00  5.514953875E+01 -6.554023417E+01  8.617331330E+01  1.651812370E-06  0.00000E+00  9.000E+00
     -14     1     6     6     0     0 -3.072812126E+01  9.744316420E+00 -7.703676824E+01  8.350947730E+01  2.336015456E-06  0.00000E+00  9.000E+00
       5     1     3     3   502     0 -1.129016733E+02 -3.488284830E+01  3.329077333E+02  3.532898560E+02  4.750000000E+00  0.00000E+00  9.000E+00
      -5     1     4     4     0   504  1.019502337E+02  3.799140381E+00 -7.159881835E+01  1.247286531E+02  4.750000000E+00  0.00000E+00  9.000E+00
      21     1     1     2   504   511  4.724235868E+01  1.355612164E+01 -1.791135044E+02  1.857343704E+02  1.907348633E-06  0.00000E+00  9.000E+00
</event>
<event>
     13  10001  1.00000E+00  4.83880E+01 -1.00000E+00  1.42967E-01
      21    -1     0     0   502   503  0.000000000E+00  0.000000000E+00  5.830141776E+02  5.830141776E+02  0.000000000E+00  0.00000E+00  9.000E+00
      21    -1     0     0   512   504  0.000000000E+00  0.000000000E+00 -1.693249857E+02  1.693249857E+02  0.000000000E+00  0.00000E+00  9.000E+00
       6     2     1     2   502     0  2.391214798E+01 -1.096538849E+02  3.674875936E+02  4.209832500E+02  1.720000000E+02  0.00000E+00  9.000E+00
      -6     2     1     2     0   504 -2.376236497E+01  1.580416883E+02  1.033027242E+02  2.565098011E+02  1.720000000E+02  0.00000E+00  9.000E+00
      24     2     3     3     0     0  6.559352019E+01 -1.220575381E+02  3.050457422E+02  3.447419573E+02  8.120073755E+01  0.00000E+00  9.000E+00
     -24     2     4     4     0     0  2.214636496E+01  9.774509419E+01 -4.770158396E-01  1.279170809E+02  7.948576676E+01  0.00000E+00  9.000E+00
     -11     1     5     5     0     0  1.342761464E+01 -3.740515785E+01  2.353969352E+01  4.619051678E+01  1.784161275E-06  0.00000E+00  9.000E+00
      12     1     5     5     0     0  5.216590554E+01 -8.465238027E+01  2.815060487E+02  2.985514405E+02  6.607249480E-06  0.00000E+00  9.000E+00
      13     1     6     6     0     0  1.491033891E+01  4.434860183E+01  3.916894816E+01  6.101903958E+01  1.651812370E-06  0.00000E+00  9.000E+00
     -14     1     6     6     0     0  7.236026055E+00  5.339649235E+01 -3.964596400E+01  6.689804130E+01  2.384185791E-06  0.00000E+00  9.000E+00
       5     1     3     3   502     0 -4.168137220E+01  1.240365321E+01  6.244185137E+01  7.624129264E+01  4.750000000E+00  0.00000E+00  9.000E+00
      -5     1     4     4     0   504 -4.590872993E+01  6.029659408E+01  1.037797401E+02  1.285927202E+02  4.750000000E+00  0.00000E+00  9.000E+00
      21     1     1     2   512   503 -1.497830144E-01 -4.838780335E+01 -5.710112588E+01  7.484611229E+01  0.000000000E+00  0.00000E+00  9.000E+00
</event>
<event>
     13  10001  1.00000E+00  3.42108E+01 -1.00000E+00  1.52695E-01
      21    -1     0     0   503   504  0.000000000E+00  0.000000000E+00  2.295905863E+02  2.295905863E+02  0.000000000E+00  0.00000E+00  9.000E+00
      21    -1     0     0   502   511  0.000000000E+00  0.000000000E+00 -2.927671006E+02  2.927671006E+02  0.000000000E+00  0.00000E+00  9.000E+00
       6     2     1     2   502     0  1.362154757E+02  4.100923351E+01  4.900580686E+01  2.285212948E+02  1.720000000E+02  0.00000E+00  9.000E+00
      -6     2     1     2     0   504 -1.078068888E+02 -6.007039543E+01 -4.208699093E+01  2.158381164E+02  1.720000000E+02  0.00000E+00  9.000E+00
      24     2     3     3     0     0  1.875387131E+01  1.927643615E+01  6.593400937E+01  1.077791334E+02  8.090586708E+01  0.00000E+00  9.000E+00
     -24     2     4     4     0     0 -1.418668386E+02 -3.088640257E+01 -4.542946526E+01  1.706106883E+02  7.722694420E+01  0.00000E+00  9.000E+00
     -11     1     5     5     0     0  3.456970394E+01  3.343337380E+01  7.118971822E+01  8.591176226E+01  1.907348633E-06  0.00000E+00  9.000E+00
      12     1     5     5     0     0 -1.581583263E+01 -1.415693765E+01 -5.255708857E+00  2.186737115E+01  1.576990671E-07  0.00000E+00  9.000E+00
      13     1     6     6     0     0 -8.765416752E+01  1.809982918E+01 -1.215630653E+01  9.032514981E+01  1.572478528E-06  0.00000E+00  9.000E+00
     -14     1     6     6     0     0 -5.421267104E+01 -4.898623175E+01 -3.327315873E+01  8.028553851E+01  1.168007728E-06  0.00000E+00  9.000E+00
       5     1     3     3   502     0  1.174616044E+02  2.173279736E+01 -1.692820251E+01  1.207421614E+02  4.750000000E+00  0.00000E+00  9.000E+00
      -5     1     4     4     0   504  3.405994974E+01 -2.918399286E+01  3.342474334E+00  4.522742807E+01  4.750000000E+00  0.00000E+00  9.000E+00
      21     1     1     2   503   511 -2.840858690E+01  1.906116192E+01 -7.009533020E+01  7.799827575E+01  1.348699152E-06  0.00000E+00  9.000E+00
</event>
<event>
     13  10001  1.00000E+00  5.63268E+01 -1.00000E+00  1.39094E-01
      21    -1     0     0   502   512  0.000000000E+00  0.000000000E+00  7.015210095E+02  7.015210095E+02  0.000000000E+00  0.00000E+00  9.000E+00
      21    -1     0     0   503   504  0.000000000E+00  0.000000000E+00 -1.667070355E+02  1.667070355E+02  0.000000000E+00  0.00000E+00  9.000E+00
       6     2     1     2   502     0  1.408233261E+02  5.521951661E+01  6.343444332E+01  2.376727431E+02  1.720000000E+02  0.00000E+00  9.000E+00
      -6     2     1     2     0   504 -1.959057190E+02 -6.699387756E+01  1.579167627E+02  3.120720018E+02  1.720000000E+02  0.00000E+00  9.000E+00
      24     2     3     3     0     0  6.596411408E+01 -1.627753186E+01 -1.539856752E+01  1.074693035E+02  8.183100226E+01  0.00000E+00  9.000E+00
     -24     2     4     4     0     0 -1.278133843E+02 -8.233002254E+01  1.690132139E+02  2.412379908E+02  8.072055433E+01  0.00000E+00  9.000E+00
     -11     1     5     5     0     0 -3.284554037E+00 -2.720161851E+01  1.479515785E+01  3.113861013E+01  8.760057960E-07  0.00000E+00  9.000E+00
      12     1     5     5     0     0  6.924866811E+01  1.092408665E+01 -3.019372537E+01  7.633069341E+01  9.536743164E-07  0.00000E+00  9.000E+00
      13     1     6     6     0     0 -1.369230954E+02 -7.069803864E+01  1.378836327E+02  2.067801801E+02  1.907348633E-06  0.00000E+00  9.000E+00
     -14     1     6     6     0     0  9.109711126E+00 -1.163198390E+01  3.112958127E+01  3.445781068E+01  6.743495762E-07  0.00000E+00  9.000E+00
       5     1     3     3   502     0  7.485921205E+01  7.149704846E+01  7.883301083E+01  1.302034395E+02  4.750000000E+00  0.00000E+00  9.000E+00
      -5     1     4     4     0   504 -6.809233469E+01  1.533614498E+01 -1.109645123E+01  7.083401101E+01  4.750000000E+00  0.00000E+00  9.000E+00
      21     1     1     2   503   512  5.508239284E+01  1.177436096E+01  3.134627679E+02  3.184833001E+02  3.814697266E-06  0.00000E+00  9.000E+00
</event>
<event>
     13  10001  1.00000E+00  2.37763E+01 -1.00000E+00  1.64490E-01
      21    -1     0     0   511   504  0.000000000E+00  0.000000000E+00  8.204781031E+02  8.204781031E+02  0.000000000E+00  0.00000E+00  9.000E+00
      21    -1     0     0   502   503  0.000000000E+00  0.000000000E+00 -1.269953934E+02  1.269953934E+02  0.000000000E+00  0.00000E+00  9.000E+00
       6     2     1     2   502     0  7.908457484E+01  3.772239479E-01  2.770533658E+02  3.355548834E+02  1.720000000E+02  0.00000E+00  9.000E+00
      -6     2     1     2     0   504 -9.675572805E+01  1.553014874E+01  3.176331200E+00  1.979821848E+02  1.720000000E+02  0.00000E+00  9.000E+00
      24     2     3     3     0     0  5.463192703E+01 -6.560933375E+01  1.897700230E+02  2.233358912E+02  8.109886891E+01  0.00000E+00  9.000E+00
     -24     2     4     4     0     0 -4.707931232E+01  1.848446954E+01 -6.291714087E+01  1.151125050E+02  8.206207967E+01  0.00000E+00  9.000E+00
     -11     1     5     5     0     0  6.157065408E+01 -2.332756577E+01  1.541272156E+02  1.676016687E+02  3.814697266E-06  0.00000E+00  9.000E+00
      12     1     5     5     0     0 -6.938727053E+00 -4.228176798E+01  3.564280747E+01  5.573422253E+01  0.000000000E+00  0.00000E+00  9.000E+00
      13     1     6     6     0     0  2.339101593E+01  6.474265940E+00 -2.192378608E+01  3.270639298E+01  2.384185791E-07  0.00000E+00  9.000E+00
     -14     1     6     6     0     0 -7.047032825E+01  1.201020360E+01 -4.099335480E+01  8.240611198E+01  1.719260824E-06  0.00000E+00  9.000E+00
       5     1     3     3   502     0  2.445264781E+01  6.598655770E+01  8.728334273E+01  1.122189922E+02  4.750000000E+00  0.00000E+00  9.000E+00
      -5     1     4     4     0   504 -4.967641573E+01 -2.954320800E+00  6.609347207E+01  8.286967987E+01  4.750000000E+00  0.00000E+00  9.000E+00
      21     1     1     2   511   503  1.767115321E+01 -1.590737269E+01  4.132530127E+02  4.139364283E+02  0.000000000E+00  0.00000E+00  9.000E+00
</event>
<event>
     13  10001  1.00000E+00  1.25624E+02 -1.00000E+00  1.21750E-01
      21    -1     0     0   502   512  0.000000000E+00  0.000000000E+00  6.905659088E+02  6.905659088E+02  0.000000000E+00  0.00000E+00  9.000E+00
      21    -1     0     0   503   504  0.000000000E+00  0.000000000E+00 -1.430283064E+02  1.430283064E+02  0.000000000E+00  0.00000E+00  9.000E+00
       6     2     1     2   502     0 -1.525453034E+02  1.810756194E+02  2.482150804E+02  3.837358150E+02  1.720000000E+02  0.00000E+00  9.000E+00
      -6     2     1     2     0   504  5.127516673E+01 -1.067403105E+02  1.668562181E+02  2.672969025E+02  1.720000000E+02  0.00000E+00  9.000E+00
      24     2     3     3     0     0 -8.347066376E+01  1.887010710E+02  1.774482068E+02  2.844384522E+02  8.271590589E+01  0.00000E+00  9.000E+00
     -24     2     4     4     0     0  7.804567028E+00 -4.955808289E+01  1.179231513E+01  9.633820378E+01  8.139456963E+01  0.00000E+00  9.000E+00
     -11     1     5     5     0     0 -6.400677534E+01  6.846475926E+01  4.329720205E+01  1.032421341E+02  1.907348633E-06  0.00000E+00  9.000E+00
      12     1     5     5     0     0 -1.946388842E+01  1.202363117E+02  1.341510048E+02  1.811963181E+02  1.907348633E-06  0.00000E+00  9.000E+00
      13     1     6     6     0     0  5.296356690E+00  1.139181183E+01  3.012662101E+01  3.264104877E+01  3.371747881E-07  0.00000E+00  9.000E+00
     -14     1     6     6     0     0  2.508210339E+00 -6.094989471E+01 -1.833430588E+01  6.369715501E+01  1.092571186E-06  0.00000E+00  9.000E+00
       5     1     3     3   502     0 -6.907463963E+01 -7.625451563E+00  7.076687360E+01  9.929736276E+01  4.750000000E+00  0.00000E+00  9.000E+00
      -5     1     4     4     0   504  4.347059971E+01 -5.718222759E+01  1.550639029E+02  1.709586988E+02  4.750000000E+00  0.00000E+00  9.000E+00
      21     1     1     2   503   512  1.012701367E+02 -7.433530896E+01  1.324663040E+02  1.825614976E+02  0.000000000E+00  0.00000E+00  9.000E+00
</event>
<event>
     13  10001  1.00000E+00  4.90195E+01 -1.00000E+00  1.42628E-01
      21    -1     0     0   503   504  0.000000000E+00  0.000000000E+00  5.117151002E+02  5.117151002E+02  0.000000000E+00  0.00000E+00  9.000E+00
      21    -1     0     0   502   511  0.000000000E+00  0.000000000E+00 -2.173892849E+02  2.173892849E+02  0.000000000E+00  0.00000E+00  9.000E+00
       6     2     1     2   502     0  1.303718713E+02 -3.383014543E+01  3.268873922E+02  3.931674843E+02  1.720000000E+02  0.00000E+00  9.000E+00
      -6     2     1     2     0   504 -1.472505073E+02 -1.219186031E+01  5.703022874E+01  2.338114633E+02  1.720000000E+02  0.00000E+00  9.000E+00
      24     2     3     3     0     0  1.120356299E+02 -6.640584549E+01  1.663998185E+02  2.283153755E+02  8.647133864E+01  0.00000E+00  9.000E+00
     -24     2     4     4     0     0 -8.843914516E+01 -1.450571069E+01  9.932363500E+01  1.611793427E+02  8.989826477E+01  0.00000E+00  9.000E+00
     -11     1     5     5     0     0  1.277064250E+01 -3.451993929E+01  6.422615810E+00  3.736262186E+01  1.099055345E-06  0.00000E+00  9.000E+00
      12     1     5     5     0     0  9.926498744E+01 -3.188590620E+01  1.599772027E+02  1.909527537E+02  4.264961200E-06  0.00000E+00  9.000E+00
      13     1     6     6     0     0 -9.052738889E+01 -4.169636745E+01  7.809895589E+01  1.266224392E+02  1.651812370E-06  0.00000E+00  9.000E+00
     -14     1     6     6     0     0  2.088243735E+00  2.719065676E+01  2.122467911E+01  3.455690351E+01  2.384185791E-07  0.00000E+00  9.000E+00
       5     1     3     3   502     0  1.833624139E+01  3.257570006E+01  1.604875736E+02  1.648521088E+02  4.750000000E+00  0.00000E+00  9.000E+00
      -5     1     4     4     0   504 -5.881136217E+01  2.313850383E+00 -4.229340626E+01  7.263212056E+01  4.750000000E+00  0.00000E+00  9.000E+00
      21     1     1     2   503   511  1.687863599E+01  4.602200573E+01 -8.959180562E+01  1.021254376E+02  1.348699152E-06  0.00000E+00  9.000E+00
</event>
<event>
     13  10001  1.00000E+00  7.40115E+01 -1.00000E+00  1.32648E-01
      21    -1     0     0   503   504  0.000000000E+00  0.000000000E+00  8.550234915E+01  8.550234915E+01  0.000000000E+00  0.00000E+00  9.000E+00
      21    -1     0     0   512   503  0.000000000E+00  0.000000000E+00 -5.822042673E+02  5.822042673E+02  0.000000000E+00  0.00000E+00  9.000E+00
       6     2     1     2   502     0 -4.680872113E+00  3.619161176E+01 -1.733274339E+02  2.468970285E+02  1.720000000E+02  0.00000E+00  9.000E+00
      -6     2     1     2     0   504  7.298642245E+01 -7.695061177E+00 -1.805073039E+02  2.599098278E+02  1.720000000E+02  0.00000E+00  9.000E+00
      24     2     3     3     0     0 -4.998413560E+01  6.710125728E+01 -1.439866646E+02  1.845172632E+02  7.945733637E+01  0.00000E+00  9.000E+00
     -24     2     4     4     0     0  1.599448732E+01  5.069232668E+01 -6.040853757E+01  1.146395834E+02  8.165480430E+01  0.00000E+00  9.000E+00
     -11     1     5     5     0     0 -1.557192927E+01  5.464388505E+00 -9.997681908E+01  1.013297038E+02  1.907348633E-06  0.00000E+00  9.000E+00
      12     1     5     5     0     0 -3.441220633E+01  6.163686878E+01 -4.400984554E+01  8.318755942E+01  1.348699152E-06  0.00000E+00  9.000E+00
      13     1     6     6     0     0 -3.538364949E+00  6.968600705E+00 -6.596821073E+01  6.642955855E+01  9.536743164E-07  0.00000E+00  9.000E+00
     -14     1     6     6     0     0  1.953285227E+01  4.372372598E+01  5.559673168E+00  4.821002486E+01  5.495276724E-07  0.00000E+00  9.000E+00
       5     1     3     3   502     0  4.530326349E+01 -3.090964553E+01 -2.934076930E+01  6.237976525E+01  4.750000000E+00  0.00000E+00  9.000E+00
      -5     1     4     4     0   504  5.699193513E+01 -5.838738786E+01 -1.200987663E+02  1.452702444E+02  4.750000000E+00  0.00000E+00  9.000E+00
      21     1     1     2   512   502 -6.830555033E+01 -2.849655058E+01 -1.428671804E+02  1.608997602E+02  0.000000000E+00  0.00000E+00  9.000E+00
</event>
<event>
     13  10001  1.00000E+00  1.86757E+01 -1.00000E+00  1.73416E-01
      21    -1     0     0   502   511  0.000000000E+00  0.000000000E+00  1.747313744E+02  1.747313744E+02  0.000000000E+00  0.00000E+00  9.000E+00
      21    -1     0     0   503   504  0.000000000E+00  0.000000000E+00 -2.948148398E+02  2.948148398E+02  0.000000000E+00  0.00000E+00  9.000E+00
       6     2     1     2   502     0  5.700136373E+01 -7.577438423E+01 -1.645278345E+02  2.562114773E+02  1.720000000E+02  0.00000E+00  9.000E+00
      -6     2     1     2     0   504 -5.234664830E+01  5.768803964E+01  4.674513064E+01  1.945178366E+02  1.720000000E+02  0.00000E+00  9.000E+00
      24     2     3     3     0     0 -1.212464241E+01  1.231410228E+01 -8.903952174E+01  1.210854841E+02  8.021853872E+01  0.00000E+00  9.000E+00
     -24     2     4     4     0     0 -2.392701456E+01  8.977739228E+01  7.435447776E+01  1.433100180E+02  7.985418401E+01  0.00000E+00  9.000E+00
     -11     1     5     5     0     0  3.059972699E+01  7.864283160E+00 -1.386231549E+01  3.450150768E+01  1.039242493E-06  0.00000E+00  9.000E+00
      12     1     5     5     0     0 -4.272436940E+01  4.449819117E+00 -7.517720625E+01  8.658397640E+01  1.651812370E-06  0.00000E+00  9.000E+00
      13     1     6     6     0     0  2.783096892E+01  4.992497610E+01  3.310227554E+01  6.605169730E+01  0.000000000E+00  0.00000E+00  9.000E+00
     -14     1     6     6     0     0 -5.175798348E+01  3.985241618E+01  4.125220222E+01  7.725832070E+01  1.168007728E-06  0.00000E+00  9.000E+00
       5     1     3     3   502     0  6.912600614E+01 -8.808848650E+01 -7.548831277E+01  1.351259932E+02  4.750000000E+00  0.00000E+00  9.000E+00
      -5     1     4     4     0   504 -2.841963374E+01 -3.208935264E+01 -2.760934712E+01  5.120781858E+01  4.750000000E+00  0.00000E+00  9.000E+00
      21     1     1     2   503   511 -4.654715431E+00  1.808634459E+01 -2.300761552E+00  1.881690038E+01  2.904771073E-07  0.00000E+00  9.000E+00
</event>
<event>
     13  10001  1.00000E+00  2.08858E+01 -1.00000E+00  1.69160E-01
      21    -1     0     0   503   504  0.000000000E+00  0.000000000E+00  1.129766924E+02  1.129766924E+02  0.000000000E+00  0.00000E+00  9.000E+00
      21    -1     0     0   502   512  0.000000000E+00  0.000000000E+00 -1.010477300E+03  1.010477300E+03  0.000000000E+00  0.00000E+00  9.000E+00
       6     2     1     2   502     0  3.565398451E+01 -5.169035079E+01 -2.246660948E+02  2.898309044E+02  1.720000000E+02  0.00000E+00  9.000E+00
      -6     2     1     2     0   504 -4.521898424E+01  3.312348649E+01 -2.175251820E+01  1.822061852E+02  1.720000000E+02  0.00000E+00  9.000E+00
      24     2     3     3     0     0  8.069515335E+00  4.915043050E+00 -2.107449085E+02  2.251668844E+02  7.872378708E+01  0.00000E+00  9.000E+00
     -24     2     4     4     0     0 -7.037898789E+01  7.362757944E+00 -6.457738844E+01  1.260530648E+02  8.192511165E+01  0.00000E+00  9.000E+00
     -11     1     5     5     0     0  3.950620564E+01  1.970669506E+01 -1.066304251E+02  1.154085857E+02  2.697398305E-06  0.00000E+00  9.000E+00
      12     1     5     5     0     0 -3.143669030E+01 -1.479165201E+01 -1.041144834E+02  1.097582987E+02  1.907348633E-06  0.00000E+00  9.000E+00
      13     1     6     6     0     0 -6.322522945E+01  3.665206738E+01 -6.192044329E+01  9.578593310E+01  1.507891493E-06  0.00000E+00  9.000E+00
     -14     1     6     6     0     0 -7.153758432E+00 -2.928930943E+01 -2.656945149E+00  3.026713175E+01  1.000044449E-06  0.00000E+00  9.000E+00
       5     1     3     3   502     0  2.758446917E+01 -5.660539384E+01 -1.392118633E+01  6.466401998E+01  4.750000000E+00  0.00000E+00  9.000E+00
      -5     1     4     4     0   504  2.516000364E+01  2.576072855E+01  4.282487024E+01  5.615312040E+01  4.750000000E+00  0.00000E+00  9.000E+00
      21     1     1     2   503   512  9.564999732E+00  1.856686429E+01 -6.510819950E+02  6.514169033E+02  7.629394531E-06  0.00000E+00  9.000E+00
</event>
<event>
     13  10001  1.00000E+00  5.97101E+01 -1.00000E+00  1.37663E-01
       1    -1     0     0   503     0  0.000000000E+00  0.000000000E+00  8.417752490E+02  8.417752490E+02  0.000000000E+00  0.00000E+00  9.000E+00
      21    -1     0     0   502   503  0.000000000E+00  0.000000000E+00 -3.215367048E+02  3.215367048E+02  0.000000000E+00  0.00000E+00  9.000E+00
       6     2     1     2   502     0 -1.366254422E+02  4.284599577E+01 -2.135368719E+02  3.093287677E+02  1.720000000E+02  0.00000E+00  9.000E+00
      -6     2     1     2     0   504  8.788151220E+01 -8.359326526E+00  1.004884111E+02  2.178874923E+02  1.720000000E+02  0.00000E+00  9.000E+00
      24     2     3     3     0     0 -1.148777533E+02  3.276316412E+01 -2.358516489E+02  2.762359098E+02  8.006219119E+01  0.00000E+00  9.000E+00
     -24     2     4     4     0     0  1.217213674E+02  1.315523545E+01  9.962259453E+01  1.774978362E+02  8.118909429E+01  0.00000E+00  9.000E+00
     -11     1     5     5     0     0 -3.407838305E+01  2.234027739E+01 -1.973928712E+01  4.527762849E+01  5.331201500E-07  0.00000E+00  9.000E+00
      12     1     5     5     0     0 -8.079937024E+01  1.042288673E+01 -2.161123618E+02  2.309582813E+02  0.000000000E+00  0.00000E+00  9.000E+00
      13     1     6     6     0     0  1.076080384E+02 -1.221686957E+01  4.840700264E+01  1.186253756E+02  1.907348633E-06  0.00000E+00  9.000E+00
     -14     1     6     6     0     0  1.411332897E+01  2.537210503E+01  5.121559189E+01  5.887246063E+01  1.651812370E-06  0.00000E+00  9.000E+00
       5     1     3     3   502     0 -2.174768892E+01  1.008283165E+01  2.231477697E+01  3.309285782E+01  4.750000000E+00  0.00000E+00  9.000E+00
      -5     1     4     4     0   504 -3.383985519E+01 -2.151456198E+01  8.658165838E-01  4.038965604E+01  4.750000000E+00  0.00000E+00  9.000E+00
       1     1     1     2   504     0  4.874393002E+01 -3.448666924E+01  6.332870050E+02  6.360956939E+02  1.078959322E-05  0.00000E+00  9.000E+00
</event>
<event>
     13  10001  1.00000E+00  6.01764E+01 -1.00000E+00  1.37475E-01
      21    -1     0     0   503   504  0.000000000E+00  0.000000000E+00  2.207936516E+02  2.207936516E+02  0.000000000E+00  0.00000E+00  9.000E+00
      21    -1     0     0   502   511  0.000000000E+00  0.000000000E+00 -2.924476464E+02  2.924476464E+02  0.000000000E+00  0.00000E+00  9.000E+00
       6     2     1     2   502     0 -2.407049509E+01  6.450636682E+01 -1.388624525E+02  2.315323753E+02  1.720000000E+02  0.00000E+00  9.000E+00
      -6     2     1     2     0   504  1.045219578E+01 -5.891154119E+00  1.129506951E+02  2.061208714E+02  1.720000000E+02  0.00000E+00  9.000E+00
      24     2     3     3     0     0  8.545193096E+00  4.289499888E+01 -1.643118922E+02  1.846168040E+02  7.191637625E+01  0.00000E+00  9.000E+00
     -24     2     4     4     0     0 -1.895836282E+01 -5.510257380E+00  1.423496512E+02  1.642641257E+02  7.955813814E+01  0.00000E+00  9.000E+00
     -11     1     5     5     0     0 -5.401936655E+00  4.320955291E+01 -3.877565437E+01  5.830778468E+01  1.507891493E-06  0.00000E+00  9.000E+00
      12     1     5     5     0     0  1.394712975E+01 -3.145540257E-01 -1.255362378E+02  1.263090194E+02  0.000000000E+00  0.00000E+00  9.000E+00
      13     1     6     6     0     0 -4.943335945E+00  1.066009557E+01 -6.807389197E+00  1.357993945E+01  3.371747881E-07  0.00000E+00  9.000E+00
     -14     1     6     6     0     0 -1.401502687E+01 -1.617035295E+01  1.491570404E+02  1.506841862E+02  3.303624740E-06  0.00000E+00  9.000E+00
       5     1     3     3   502     0 -3.261568819E+01  2.161136793E+01  2.544943972E+01  4.691557121E+01  4.750000000E+00  0.00000E+00  9.000E+00
      -5     1     4     4     0   504  2.941055860E+01 -3.808967393E-01 -2.939895609E+01  4.185674567E+01  4.750000000E+00  0.00000E+00  9.000E+00
      21     1     1     2   503   511  1.361829932E+01 -5.861521270E+01 -4.574223740E+01  7.558805143E+01  1.348699152E-06  0.00000E+00  9.000E+00
</event>
<event>
     13  10001  1.00000E+00  1.51426E+01 -1.00000E+00  1.82024E-01
      -2    -1     0     0     0   513  0.000000000E+00  0.000000000E+00  1.417932664E+02  1.417932664E+02  0.000000000E+00  0.00000E+00  9.000E+00
       2    -1     0     0   502     0  0.000000000E+00  0.000000000E+00 -8.014455506E+02  8.014455506E+02  0.000000000E+00  0.00000E+00  9.000E+00
       6     2     1     2   502     0 -2.639070641E+02  4.694065576E+01 -2.198877187E+02  3.870206357E+02  1.720000000E+02  0.00000E+00  9.000E+00
      -6     2     1     2     0   512  2.682803913E+02 -6.143799063E+01 -4.274540912E+02  5.367028928E+02  1.720000000E+02  0.00000E+00  9.000E+00
      24     2     3     3     0     0 -1.770766427E+02  5.067483701E+01 -2.243620550E+02  2.998653239E+02  7.521172952E+01  0.00000E+00  9.000E+00
     -24     2     4     4     0     0  2.120647523E+02  2.303631096E+01 -2.778463305E+02  3.558682992E+02  6.278162285E+01  0.00000E+00  9.000E+00
     -11     1     5     5     0     0 -1.398432447E+02  3.762783943E+01 -1.192628489E+02  1.876049426E+02  4.046097457E-06  0.00000E+00  9.000E+00
      12     1     5     5     0     0 -3.723339808E+01  1.304699757E+01 -1.050992062E+02  1.122603813E+02  1.907348633E-06  0.00000E+00  9.000E+00
      13     1     6     6     0     0  3.165674563E+01  9.395862295E+00 -1.381063365E+01  3.579337053E+01  1.025477084E-06  0.00000E+00  9.000E+00
     -14     1     6     6     0     0  1.804080067E+02  1.364044867E+01 -2.640356969E+02  3.200749286E+02  0.000000000E+00  0.00000E+00  9.000E+00
       5     1     3     3   502     0 -8.683042133E+01 -3.734181251E+00  4.474336372E+00  8.715531174E+01  4.750000000E+00  0.00000E+00  9.000E+00
      -5     1     4     4     0   512  5.621563895E+01 -8.447430159E+01 -1.496077607E+02  1.808345936E+02  4.750000000E+00  0.00000E+00  9.000E+00
      21     1     1     2   512   513 -4.373327186E+00  1.449733488E+01 -1.231047437E+01  1.951528858E+01  2.384185791E-07  0.00000E+00  9.000E+00
</event>
<event>
     13  10001  1.00000E+00  6.47596E+01 -1.00000E+00  1.35722E-01
      21    -1     0     0   503   504  0.000000000E+00  0.000000000E+00  2.713570997E+02  2.713570997E+02  0.000000000E+00  0.00000E+00  9.000E+00
       1    -1     0     0   502     0  0.000000000E+00  0.000000000E+00 -1.463873683E+03  1.463873683E+03  0.000000000E+00  0.00000E+00  9.000E+00
       6     2     1     2   502     0 -2.992284154E+02 -1.567130111E+02 -4.172563819E+01  3.813418955E+02  1.720000000E+02  0.00000E+00  9.000E+00
      -6     2     1     2     0   504  2.831625264E+02  9.397793628E+01 -1.946996580E+02  3.956069081E+02  1.720000000E+02  0.00000E+00  9.000E+00
      24     2     3     3     0     0 -1.163761524E+02 -7.967069835E+00 -2.321692666E+01  1.448562934E+02  8.268879614E+01  0.00000E+00  9.000E+00
     -24     2     4     4     0     0  8.225462561E+01  8.358012619E+01 -6.761231567E+01  1.576030128E+02  8.072065098E+01  0.00000E+00  9.000E+00
     -11     1     5     5     0     0 -5.682896324E+01 -2.569304296E+01  2.399514819E+01  6.682387789E+01  2.211002945E-06  0.00000E+00  9.000E+00
      12     1     5     5     0     0 -5.954718911E+01  1.772597313E+01 -4.721207484E+01  7.803241548E+01  1.168007728E-06  0.00000E+00  9.000E+00
      13     1     6     6     0     0  6.631155064E+00  1.690211825E-01 -4.149823508E+01  4.202504373E+01  8.259061849E-07  0.00000E+00  9.000E+00
     -14     1     6     6     0     0  7.562347054E+01  8.341110500E+01 -2.611408059E+01  1.155779691E+02  1.066240300E-06  0.00000E+00  9.000E+00
       5     1     3     3   502     0 -1.828522630E+02 -1.487459413E+02 -1.850871154E+01  2.364856022E+02  4.750000000E+00  0.00000E+00  9.000E+00
      -5     1     4     4     0   504  2.009079008E+02  1.039781010E+01 -1.270873423E+02  2.380038952E+02  4.750000000E+00  0.00000E+00  9.000E+00
       1     1     1     2   503     0  1.606588894E+01  6.273507481E+01 -9.560912867E+02  9.582819788E+02  0.000000000E+00  0.00000E+00  9.000E+00
</event>
<event>
     13  10001  1.00000E+00  1.46877E+02 -1.00000E+00  1.18872E-01
       2    -1     0     0   502     0  0.000000000E+00  0.000000000E+00  3.272856671E+02  3.272856671E+02  0.000000000E+00  0.00000E+00  9.000E+00
      21    -1     0     0   503   504  0.000000000E+00  0.000000000E+00 -2.866019614E+02  2.866019614E+02  0.000000000E+00  0.00000E+00  9.000E+00
       6     2     1     2   502     0  9.043874320E+01 -1.689831152E+02 -3.666443427E+01  2.601206263E+02  1.720000000E+02  0.00000E+00  9.000E+00
      -6     2     1     2     0   504 -6.463385134E+01  2.439069214E+01 -4.918506713E+00  1.854201508E+02  1.720000000E+02  0.00000E+00  9.000E+00
      24     2     3     3     0     0  1.276267136E+02 -1.337459579E+02 -4.975074700E+01  2.070318659E+02  7.880670902E+01  0.00000E+00  9.000E+00
     -24     2     4     4     0     0 -7.793908465E+01 -2.676919998E+01  3.363942330E+01  1.198180147E+02  8.021006703E+01  0.00000E+00  9.000E+00
     -11     1     5     5     0     0  3.963095207E+00 -3.506422034E+01  1.189005920E+01  3.723679873E+01  1.052827938E-06  0.00000E+00  9.000E+00
      12     1     5     5     0     0  1.236636184E+02 -9.868173760E+01 -6.164080620E+01  1.697950672E+02  3.015782986E-06  0.00000E+00  9.000E+00
      13     1     6     6     0     0 -3.342251612E+01  2.818216910E+01  7.149317586E+00  4.429911942E+01  1.189108929E-06  0.00000E+00  9.000E+00
     -14     1     6     6     0     0 -4.451656853E+01 -5.495136908E+01  2.649010571E+01  7.551889524E+01  9.536743164E-07  0.00000E+00  9.000E+00
       5     1     3     3   502     0 -3.718797044E+01 -3.523715722E+01  1.308631273E+01  5.308876035E+01  4.750000000E+00  0.00000E+00  9.000E+00
      -5     1     4     4     0   504  1.330523331E+01  5.115989212E+01 -3.855793001E+01  6.560213611E+01  4.750000000E+00  0.00000E+00  9.000E+00
       2     1     1     2   503     0 -2.580489186E+01  1.445924230E+02  8.226664671E+01  1.683468515E+02  4.473129043E-06  0.00000E+00  9.000E+00
</event>
<event>
     13  10001  1.00000E+00  2.91931E+01 -1.00000E+00  1.57615E-01
      21    -1     0     0   502   503  0.000000000E+00  0.000000000E+00  1.087498894E+02  1.087498894E+02  0.000000000E+00  0.00000E+00  9.000E+00
      21    -1     0     0   503   511  0.000000000E+00  0.000000000E+00 -7.650828512E+02  7.650828512E+02  0.000000000E+00  0.00000E+00  9.000E+00
       6     2     1     2   502     0 -2.070239419E+01 -2.947130076E+01 -3.330617595E+01  1.788587377E+02  1.720000000E+02  0.00000E+00  9.000E+00
      -6     2     1     2     0   504  4.986748613E+01  2.819291876E+01 -1.961353181E+02  2.670855104E+02  1.720000000E+02  0.00000E+00  9.000E+00
      24     2     3     3     0     0 -2.238683437E+01  4.758679815E+01 -2.786861695E+00  9.582393181E+01  8.005489115E+01  0.00000E+00  9.000E+00
     -24     2     4     4     0     0 -3.443367555E+01  3.492020602E+01 -1.022214294E+02  1.406168453E+02  8.317919061E+01  0.00000E+00  9.000E+00
     -11     1     5     5     0     0 -2.720225041E+01  1.897805412E+01 -3.784241327E+01  5.032074331E+01  9.536743164E-07  0.00000E+00  9.000E+00
      12     1     5     5     0     0  4.815416043E+00  2.860874403E+01  3.505555157E+01  4.550318849E+01  8.259061849E-07  0.00000E+00  9.000E+00
      13     1     6     6     0     0 -1.939508802E+01 -2.633750059E+01 -2.672513242E+01  4.223820639E+01  7.539457465E-07  0.00000E+00  9.000E+00
     -14     1     6     6     0     0 -1.503858753E+01  6.125770660E+01 -7.549629698E+01  9.837863890E+01  9.536743164E-07  0.00000E+00  9.000E+00
       5     1     3     3   502     0  1.684440178E+00 -7.705809891E+01 -3.051931426E+01  8.303480589E+01  4.750000000E+00  0.00000E+00  9.000E+00
      -5     1     4     4     0   504  8.430116169E+01 -6.727287254E+00 -9.391388874E+01  1.264686651E+02  4.750000000E+00  0.00000E+00  9.000E+00
      21     1     1     2   504   511 -2.916509194E+01  1.278381997E+00 -4.268914676E+02  4.278884925E+02  7.629394531E-06  0.00000E+00  9.000E+00
</event>
<event>
     13  10001  1.00000E+00  5.63981E+00 -1.00000E+00  2.38477E-01
      -2    -1     0     0     0   512  0.000000000E+00  0.000000000E+00  5.401564917E+01  5.401564917E+01  0.000000000E+00  0.00000E+00  9.000E+00
       2    -1     0     0   513     0  0.000000000E+00  0.000000000E+00 -8.990976182E+02  8.990976182E+02  0.000000000E+00  0.00000E+00  9.000E+00
       6     2     1     2   502     0 -1.619768778E+01  8.811812208E+00 -5.925876043E+02  6.173200806E+02  1.720000000E+02  0.00000E+00  9.000E+00
      -6     2     1     2     0   512  1.756112957E+01 -1.428433230E+01 -1.393795179E+02  2.225378292E+02  1.720000000E+02  0.00000E+00  9.000E+00
      24     2     3     3     0     0  3.788050699E+01 -3.988042358E+01 -3.821757361E+02  3.946294841E+02  8.153990113E+01  0.00000E+00  9.000E+00
     -24     2     4     4     0     0 -5.641138879E+01 -1.217326167E+01 -9.508242387E+01  1.361596773E+02  7.853889040E+01  0.00000E+00  9.000E+00
     -11     1     5     5     0     0 -1.500150507E+01 -1.256379669E+01 -2.148313670E+01  2.905889371E+01  1.563415176E-06  0.00000E+00  9.000E+00
      12     1     5     5     0     0  5.288201206E+01 -2.731662689E+01 -3.606925994E+02  3.655705904E+02  5.394796609E-06  0.00000E+00  9.000E+00
      13     1     6     6     0     0 -3.431800087E+01 -2.403845981E+01 -1.018946446E+02  1.101730063E+02  2.336015456E-06  0.00000E+00  9.000E+00
     -14     1     6     6     0     0 -2.209338792E+01  1.186519814E+01  6.812220691E+00  2.598667096E+01  1.238859277E-06  0.00000E+00  9.000E+00
       5     1     3     3   502     0 -5.407819477E+01  4.869223579E+01 -2.104118682E+02  2.226905965E+02  4.750000000E+00  0.00000E+00  9.000E+00
      -5     1     4     4     0   512  7.397251836E+01 -2.111070622E+00 -4.429709406E+01  8.637815194E+01  4.750000000E+00  0.00000E+00  9.000E+00
      21     1     1     2   513   502 -1.363441796E+00  5.472520089E+00 -1.131148468E+02  1.132553576E+02  1.907348633E-06  0.00000E+00  9.000E+00
</event>
<event>
     13  10001  1.00000E+00  1.93462E+01 -1.00000E+00  1.72050E-01
      21    -1     0     0   502   511  0.000000000E+00  0.000000000E+00  4.236187925E+02  4.236187925E+02  0.000000000E+00  0.00000E+00  9.000E+00
      21    -1     0     0   503   504  0.000000000E+00  0.000000000E+00 -2.186058903E+02  2.186058903E+02  0.000000000E+00  0.00000E+00  9.000E+00
       6     2     1     2   502     0  5.364119457E+01  9.959079341E+01  3.091560730E+02  3.714258760E+02  1.720000000E+02  0.00000E+00  9.000E+00
      -6     2     1     2     0   504 -4.737015208E+01 -8.128913582E+01 -1.323878713E+02  2.365637406E+02  1.720000000E+02  0.00000E+00  9.000E+00
      24     2     3     3     0     0 -2.939522254E+00 -1.358914322E+01  1.641052472E+02  1.788813873E+02  6.981914458E+01  0.00000E+00  9.000E+00
     -24     2     4     4     0     0 -6.728410528E+01 -1.158682431E+02 -1.073186151E+02  1.892001439E+02  7.954123893E+01  0.00000E+00  9.000E+00
     -11     1     5     5     0     0  3.097949242E+01 -1.836359339E+01  9.840939685E+01  1.047919840E+02  1.907348633E-06  0.00000E+00  9.000E+00
      12     1     5     5     0     0 -3.391901468E+01  4.774450176E+00  6.569585037E+01  7.408940334E+01  0.000000000E+00  0.00000E+00  9.000E+00
      13     1     6     6     0     0 -6.708040116E+01 -8.173171227E+01 -1.128197450E+02  1.546225982E+02  2.697398305E-06  0.00000E+00  9.000E+00
     -14     1     6     6     0     0 -2.037041195E-01 -3.413653085E+01  5.501129861E+00  3.457754566E+01  5.264139692E-07  0.00000E+00  9.000E+00
       5     1     3     3   502     0  5.658071682E+01  1.131799366E+02  1.450508258E+02  1.925444887E+02  4.750000000E+00  0.00000E+00  9.000E+00
      -5     1     4     4     0   504  1.991395320E+01  3.457910731E+01 -2.506925617E+01  4.736359677E+01  4.750000000E+00  0.00000E+00  9.000E+00
      21     1     1     2   503   511 -6.271042484E+00 -1.830165759E+01  2.824470057E+01  3.423506616E+01  3.371747881E-07  0.00000E+00  9.000E+00
</event>
<event>
     13  10001  1.00000E+00  3.77132E+01 -1.00000E+00  1.49825E-01
      -2    -1     0     0     0   512  0.000000000E+00  0.000000000E+00  3.173990637E+02  3.173990637E+02  0.000000000E+00  0.00000E+00  9.000E+00
       2    -1     0     0   513     0  0.000000000E+00  0.000000000E+00 -1.222062176E+03  1.222062176E+03  0.000000000E+00  0.00000E+00  9.000E+00
       6     2     1     2   502     0 -1.905542516E+02  2.439989241E+02 -8.720485743E+02  9.412221384E+02  1.720000000E+02  0.00000E+00  9.000E+00
      -6     2     1     2     0   512  2.263787638E+02 -2.557839645E+02  1.507216375E+02  4.110642203E+02  1.720000000E+02  0.00000E+00  9.000E+00
      24     2     3     3     0     0 -1.877950807E+02  2.576649292E+02 -7.590688491E+02  8.272863954E+02  8.098798788E+01  0.00000E+00  9.000E+00
     -24     2     4     4     0     0  2.286995405E+02 -1.718985509E+02  1.348616232E+02  3.255291329E+02  7.699978793E+01  0.00000E+00  9.000E+00
     -11     1     5     5     0     0 -5.102877537E+01  1.366448038E+02 -3.593731116E+02  3.878463248E+02  6.607249480E-06  0.00000E+00  9.000E+00
      12     1     5     5     0     0 -1.367663053E+02  1.210201254E+02 -3.996957375E+02  4.394400706E+02  5.394796609E-06  0.00000E+00  9.000E+00
      13     1     6     6     0     0  1.563432227E+02 -1.156759011E+02  1.296730948E+02  2.337503560E+02  6.031565972E-06  0.00000E+00  9.000E+00
     -14     1     6     6     0     0  7.235631776E+01 -5.622264985E+01  5.188528366E+00  9.177877698E+01  2.658260241E-06  0.00000E+00  9.000E+00
       5     1     3     3   502     0 -2.759170834E+00 -1.366600513E+01 -1.129797252E+02  1.139357430E+02  4.750000000E+00  0.00000E+00  9.000E+00
      -5     1     4     4     0   512 -2.320776709E+00 -8.388541358E+01  1.586001429E+01  8.553508736E+01  4.750000000E+00  0.00000E+00  9.000E+00
      21     1     1     2   513   502 -3.582451222E+01  1.178504041E+01 -1.833361759E+02  1.871748815E+02  0.000000000E+00  0.00000E+00  9.000E+00
</event>
<event>
     13  10001  1.00000E+00  1.81254E+02 -1.00000E+00  1.15212E-01
      21    -1     0     0   502   503  0.000000000E+00  0.000000000E+00  6.749308081E+01  6.749308081E+01  0.000000000E+00  0.00000E+00  9.000E+00
       2    -1     0     0   503     0  0.000000000E+00  0.000000000E+00 -1.644296282E+03  1.644296282E+03  0.000000000E+00  0.00000E+00  9.000E+00
       6     2     1     2   502     0  8.368085775E+01 -1.304823082E+02 -3.436307373E+02  4.143599912E+02  1.720000000E+02  0.00000E+00  9.000E+00
      -6     2     1     2     0   504  6.519062530E+01  2.708852749E+01 -3.549294623E+02  4.006775876E+02  1.720000000E+02  0.00000E+00  9.000E+00
      24     2     3     3     0     0 -1.550645421E+01 -7.075996564E+01 -2.143436881E+02  2.407437919E+02  8.226137539E+01  0.00000E+00  9.000E+00
     -24     2     4     4     0     0  5.150515842E+01  1.381259591E+01 -6.774042204E+01  1.128171184E+02  7.276928109E+01  0.00000E+00  9.000E+00
     -11     1     5     5     0     0  1.846872113E+01 -2.135959779E+01 -1.379857913E+01  3.142812219E+01  8.920806376E-07  0.00000E+00  9.000E+00
      12     1     5     5     0     0 -3.397517535E+01 -4.940036785E+01 -2.005451089E+02  2.093156697E+02  3.814697266E-06  0.00000E+00  9.000E+00
      13     1     6     6     0     0  7.454043866E+00  3.060037889E+01 -5.597850779E+01  6.423036114E+01  9.536743164E-07  0.00000E+00  9.000E+00
     -14     1     6     6     0     0  4.405111456E+01 -1.678778298E+01 -1.176191425E+01  4.858675723E+01  1.651812370E-06  0.00000E+00  9.000E+00
       5     1     3     3   502     0  9.918731196E+01 -5.972234257E+01 -1.292870492E+02  1.736161993E+02  4.750000000E+00  0.00000E+00  9.000E+00
      -5     1     4     4     0   504  1.368546687E+01  1.327593158E+01 -2.871890403E+02  2.878604692E+02  4.750000000E+00  0.00000E+00  9.000E+00
       2     1     1     2   504     0 -1.488714830E+02  1.033937807E+02 -8.782430017E+02  8.967517841E+02  0.000000000E+00  0.00000E+00  9.000E+00
</event>
<event>
     13  10001  1.00000E+00  9.72379E+00 -1.00000E+00  2.03488E-01
      21    -1     0     0   502   503  0.000000000E+00  0.000000000E+00  8.690784095E+01  8.690784095E+01  0.000000000E+00  0.00000E+00  9.000E+00
      21    -1     0     0   511   504  0.000000000E+00  0.000000000E+00 -4.341446443E+02  4.341446443E+02  0.000000000E+00  0.00000E+00  9.000E+00
       6     2     1     2   502     0 -9.755407599E+00  9.085859099E+00 -2.718347543E+02  3.219562927E+02  1.720000000E+02  0.00000E+00  9.000E+00
      -6     2     1     2     0   504  1.017177832E+00 -1.335146145E+01 -6.375554173E+01  1.839240748E+02  1.720000000E+02  0.00000E+00  9.000E+00
      24     2     3     3     0     0  7.579500072E-02 -7.076824969E+00 -4.348142876E+01  9.277145758E+01  8.164448235E+01  0.00000E+00  9.000E+00
     -24     2     4     4     0     0  3.160079410E+01 -3.454440821E+01 -9.767728969E+01  1.333499108E+02  7.777801399E+01  0.00000E+00  9.000E+00
     -11     1     5     5     0     0  3.422237096E+01  1.722241715E+01 -1.133717889E+01  3.995389783E+01  6.529361695E-07  0.00000E+00  9.000E+00
      12     1     5     5     0     0 -3.414657596E+01 -2.429924212E+01 -3.214424987E+01  5.281755974E+01  9.536743164E-07  0.00000E+00  9.000E+00
      13     1     6     6     0     0 -1.190565447E+01 -4.060051349E+01 -2.718195964E+01  5.028921588E+01  7.539457465E-07  0.00000E+00  9.000E+00
     -14     1     6     6     0     0  4.350644857E+01  6.056105287E+00 -7.049533005E+01  8.306069491E+01  1.907348633E-06  0.00000E+00  9.000E+00
       5     1     3     3   502     0 -9.831202599E+00  1.616268407E+01 -2.283533255E+02  2.291848352E+02  4.750000000E+00  0.00000E+00  9.000E+00
      -5     1     4     4     0   504 -3.058361627E+01  2.119294676E+01  3.392174796E+01  5.057416397E+01  4.750000000E+00  0.00000E+00  9.000E+00
      21     1     1     2   511   503  8.738229767E+00  4.265602353E+00 -1.164650732E+01  1.517211771E+01  1.685873940E-07  0.00000E+00  9.000E+00
</event>
<event>
     13  10001  1.00000E+00  8.42184E+01 -1.00000E+00  1.29806E-01
      21    -1     0     0   503   504  0.000000000E+00  0.000000000E+00  1.260134527E+02  1.260134527E+02  0.000000000E+00  0.00000E+00  9.000E+00
      21    -1     0     0   502   512  0.000000000E+00  0.000000000E+00 -4.023867745E+02  4.023867745E+02  0.000000000E+00  0.00000E+00  9.000E+00
       6     2     1     2   502     0 -4.514278338E+01  2.308442051E+01 -7.319576197E+01  1.936811321E+02  1.720000000E+02  0.00000E+00  9.000E+00
      -6     2     1     2     0   504 -3.572216175E+01 -4.661317699E+01 -1.364301044E+02  2.272576390E+02  1.720000000E+02  0.00000E+00  9.000E+00
      24     2     3     3     0     0 -9.386950983E+01  1.056605547E+01 -7.700019368E+01  1.430053042E+02  7.482219454E+01  0.00000E+00  9.000E+00
     -24     2     4     4     0     0  1.471999791E+01 -5.740903788E+01 -2.261430916E+01  1.022074098E+02  8.014032488E+01  0.00000E+00  9.000E+00
     -11     1     5     5     0     0  1.156493804E+01 -5.266730667E-01  6.476627690E-01  1.159502667E+01  4.292982903E-07  0.00000E+00  9.000E+00
      12     1     5     5     0     0 -1.054344479E+02  1.109272854E+01 -7.764785645E+01  1.314102775E+02  1.348699152E-06  0.00000E+00  9.000E+00
      13     1     6     6     0     0  5.223306948E+00  9.051965055E+00  2.008625173E+01  2.264240525E+01  6.307962682E-07  0.00000E+00  9.000E+00
     -14     1     6     6     0     0  9.496690959E+00 -6.646100294E+01 -4.270056089E+01  7.956500457E+01  4.768371582E-07  0.00000E+00  9.000E+00
       5     1     3     3   502     0  4.872672645E+01  1.251836504E+01  3.804431716E+00  5.067582791E+01  4.750000000E+00  0.00000E+00  9.000E+00
      -5     1     4     4     0   504 -5.044215966E+01  1.079586090E+01 -1.138157952E+02  1.250502292E+02  4.750000000E+00  0.00000E+00  9.000E+00
      21     1     1     2   503   512  8.086494514E+01  2.352875647E+01 -6.674745543E+01  1.074614561E+02  1.651812370E-06  0.00000E+00  9.000E+00
</event>
<event>
     13  10001  1.00000E+00  1.06761E+02 -1.00000E+00  1.24901E-01
      21    -1     0     0   502   511  0.000000000E+00  0.000000000E+00  1.607866171E+02  1.607866171E+02  0.000000000E+00  0.00000E+00  9.000E+00
      21    -1     0     0   503   504  0.000000000E+00  0.000000000E+00 -9.212862775E+02  9.212862775E+02  0.000000000E+00  0.00000E+00  9.000E+00
       6     2     1     2   502     0  4.640442314E+01  2.058043841E+01 -3.158853881E+02  3.632416597E+02  1.720000000E+02  0.00000E+00  9.000E+00
      -6     2     1     2     0   504 -1.468479418E+02  1.560115968E+01 -5.336566293E+02  5.798112729E+02  1.720000000E+02  0.00000E+00  9.000E+00
      24     2     3     3     0     0 -1.394394568E+01  5.314298088E+01 -2.517102987E+02  2.692031070E+02  7.806169563E+01  0.00000E+00  9.000E+00
     -24     2     4     4     0     0 -1.069807613E+02 -5.256637669E+01 -2.943559623E+02  3.277724330E+02  8.112476840E+01  0.00000E+00  9.000E+00
     -11     1     5     5     0     0  2.574759777E+01  2.164352238E+01 -1.681341916E+02  1.714657028E+02  5.722045898E-06  0.00000E+00  9.000E+00
      12     1     5     5     0     0 -3.969154346E+01  3.149945849E+01 -8.357610710E+01  9.773740423E+01  1.348699152E-06  0.00000E+00  9.000E+00
      13     1     6     6     0     0 -4.669014779E+01 -5.570807969E+01 -9.588067495E+01  1.203181777E+02  2.336015456E-06  0.00000E+00  9.000E+00
     -14     1     6     6     0     0 -6.029061348E+01  3.141703005E+00 -1.984752874E+02  2.074542554E+02  2.697398305E-06  0.00000E+00  9.000E+00
       5     1     3     3   502     0  6.034836882E+01 -3.256254246E+01 -6.417508942E+01  9.403855270E+01  4.750000000E+00  0.00000E+00  9.000E+00
      -5     1     4     4     0   504 -3.986718049E+01  6.816753637E+01 -2.393006670E+02  2.520388399E+02  4.750000000E+00  0.00000E+00  9.000E+00
      21     1     1     2   503   511  1.004435186E+02 -3.618159809E+01  8.904235702E+01  1.390199619E+02  2.336015456E-06  0.00000E+00  9.000E+00
</event>
<event>
     13  10001  1.00000E+00  2.22515E+01 -1.00000E+00  1.66844E-01
      21    -1     0     0   502   512  0.000000000E+00  0.000000000E+00  3.037297584E+02  3.037297584E+02  0.000000000E+00  0.00000E+00  9.000E+00
      21    -1     0     0   503   504  0.000000000E+00  0.000000000E+00 -1.172451303E+03  1.172451303E+03  0.000000000E+00  0.00000E+00  9.000E+00
       6     2     1     2   502     0  9.664576671E+01 -4.827729454E+02 -7.254287972E+02  8.934433730E+02  1.720000000E+02  0.00000E+00  9.000E+00
      -6     2     1     2     0   504 -1.035600699E+02  5.039229461E+02 -1.350079633E+02  5.589938943E+02  1.720000000E+02  0.00000E+00  9.000E+00
      24     2     3     3     0     0  7.767901741E+01 -1.707040106E+02 -2.231519813E+02  3.017920231E+02  7.815196381E+01  0.00000E+00  9.000E+00
     -24     2     4     4     0     0 -7.960867455E+01  5.048760980E+02 -1.357861936E+02  5.345450501E+02  7.786594127E+01  0.00000E+00  9.000E+00
     -11     1     5     5     0     0  4.220927563E+01 -1.059179540E+02 -1.882817630E+02  2.201141935E+02  3.814697266E-06  0.00000E+00  9.000E+00
      12     1     5     5     0     0  3.546974178E+01 -6.478605661E+01 -3.487021836E+01  8.167782956E+01  2.477718555E-06  0.00000E+00  9.000E+00
      13     1     6     6     0     0 -1.257232063E+01  2.920732013E+02 -5.642656909E+01  2.977394429E+02  4.473129043E-06  0.00000E+00  9.000E+00
     -14     1     6     6     0     0 -6.703635393E+01  2.128028968E+02 -7.935962456E+01  2.368056073E+02  6.877043296E-06  0.00000E+00  9.000E+00
       5     1     3     3   502     0  1.896674930E+01 -3.120689348E+02 -5.022768158E+02  5.916513500E+02  4.750000000E+00  0.00000E+00  9.000E+00
      -5     1     4     4     0   504 -2.395139534E+01 -9.531519267E-01  7.782303793E-01  2.444884414E+01  4.750000000E+00  0.00000E+00  9.000E+00
      21     1     1     2   503   512  6.914303178E+00 -2.115000066E+01 -8.284784308E+00  2.374379429E+01  1.685873940E-07  0.00000E+00  9.000E+00
</event>
<event>
     13  10001  1.00000E+00  1.26488E+02 -1.00000E+00  1.21621E-01
       2    -1     0     0   502     0  0.000000000E+00  0.000000000E+00  6.842800508E+02  6.842800508E+02  0.000000000E+00  0.00000E+00  9.000E+00
      21    -1     0     0   503   504  0.000000000E+00  0.000000000E+00 -7.854846981E+02  7.854846981E+02  0.000000000E+00  0.00000E+00  9.000E+00
       6     2     1     2   502     0 -1.841860814E+02  5.494883907E+01 -9.870792378E+01  2.761723044E+02  1.720000000E+02  0.00000E+00  9.000E+00
      -6     2     1     2     0   504  6.047213476E+01 -2.860578919E+01 -5.767585171E+02  6.055654856E+02  1.720000000E+02  0.00000E+00  9.000E+00
      24     2     3     3     0     0 -1.028597732E+02  3.211853233E+01  1.424988406E+01  1.350439225E+02  8.013781104E+01  0.00000E+00  9.000E+00
     -24     2     4     4     0     0  9.472001309E+01  2.702339526E+00 -5.062342333E+02  5.210116376E+02  7.874543843E+01  0.00000E+00  9.000E+00
     -11     1     5     5     0     0 -1.028650586E+02  2.972823515E+01 -1.284626549E+01  1.078425463E+02  2.506231790E-06  0.00000E+00  9.000E+00
      12     1     5     5     0     0  5.285455566E-03  2.390297179E+00  2.709614955E+01  2.720137624E+01  6.743495762E-07  0.00000E+00  9.000E+00
      13     1     6     6     0     0  2.786229709E+01  3.262621797E+01 -2.785520140E+02  2.818368361E+02  3.814697266E-06  0.00000E+00  9.000E+00
     -14     1     6     6     0     0  6.685771600E+01 -2.992387845E+01 -2.276822193E+02  2.391748015E+02  4.672030912E-06  0.00000E+00  9.000E+00
       5     1     3     3   502     0 -8.132630819E+01  2.283030675E+01 -1.129578078E+02  1.411283818E+02  4.750000000E+00  0.00000E+00  9.000E+00
      -5     1     4     4     0   504 -3.424787833E+01 -3.130812872E+01 -7.052428385E+01  8.455384797E+01  4.750000000E+00  0.00000E+00  9.000E+00
       2     1     1     2   503     0  1.237139466E+02 -2.634304988E+01  5.742617936E+02  5.880269590E+02  1.078959322E-05  0.00000E+00  9.000E+00
</event>
<event>
     13  10001  1.00000E+00  3.00065E+01 -1.00000E+00  1.56740E-01
       1    -1     0     0   502     0  0.000000000E+00  0.000000000E+00  1.315802945E+03  1.315802945E+03  0.000000000E+00  0.00000E+00  9.000E+00
      21    -1     0     0   511   512  0.000000000E+00  0.000000000E+00 -1.019092106E+02  1.019092106E+02  0.000000000E+00  0.00000E+00  9.000E+00
       6     2     1     2   502     0 -3.326599207E+00 -1.830223949E+02  1.071480923E+03  1.100528797E+03  1.720000000E+02  0.00000E+00  9.000E+00
      -6     2     1     2     0   512 -2.522425322E+01  1.737897514E+02  1.003298123E+02  2.654980450E+02  1.720000000E+02  0.00000E+00  9.000E+00
      24     2     3     3     0     0  1.560272872E+01 -4.453230663E+01  6.453926716E+02  6.520741337E+02  8.026458625E+01  0.00000E+00  9.000E+00
     -24     2     4     4     0     0 -7.714322563E+01  1.325882648E+02  9.754471871E+01  1.989889370E+02  8.093762834E+01  0.00000E+00  9.000E+00
     -11     1     5     5     0     0  1.119733487E+00  2.347114717E+01  1.751097095E+02  1.766792543E+02  1.907348633E-06  0.00000E+00  9.000E+00
      12     1     5     5     0     0  1.448299524E+01 -6.800345380E+01  4.702829621E+02  4.753948794E+02  5.394796609E-06  0.00000E+00  9.000E+00
      13     1     6     6     0     0 -8.163617221E+01  9.575345959E+01  4.291273736E+01  1.329462021E+02  3.960906917E-06  0.00000E+00  9.000E+00
     -14     1     6     6     0     0  4.492946579E+00  3.683480526E+01  5.463198134E+01  6.604273490E+01  1.168007728E-06  0.00000E+00  9.000E+00
       5     1     3     3   502     0 -1.892932793E+01 -1.384900882E+02  4.260882516E+02  4.484546629E+02  4.750000000E+00  0.00000E+00  9.000E+00
      -5     1     4     4     0   512  5.191897241E+01  4.120148659E+01  2.785093614E+00  6.650910795E+01  4.750000000E+00  0.00000E+00  9.000E+00
       1     1     1     2   511     0  2.855085242E+01  9.232643416E+00  4.208299857E+01  5.168531365E+01  4.768371582E-07  0.00000E+00  9.000E+00
</event>
<event>
     13  10001  1.00000E+00  3.39639E+01 -1.00000E+00  1.52913E-01
      21    -1     0     0   513   512  0.000000000E+00  0.000000000E+00  1.006115680E+02  1.006115680E+02  0.000000000E+00  0.00000E+00  9.000E+00
       1    -1     0     0   502     0  0.000000000E+00  0.000000000E+00 -5.436813790E+02  5.436813790E+02  0.000000000E+00  0.00000E+00  9.000E+00
       6     2     1     2   502     0  4.294856271E+01  6.276386121E+01 -2.375660445E+02  3.029942356E+02  1.720000000E+02  0.00000E+00  9.000E+00
      -6     2     1     2     0   512 -6.181658587E+01 -9.100469800E+01 -9.406792626E+01  2.248019575E+02  1.720000000E+02  0.00000E+00  9.000E+00
      24     2     3     3     0     0  9.436132187E+01  3.036540557E+01 -1.687640410E+02  2.110746516E+02  7.902588252E+01  0.00000E+00  9.000E+00
     -24     2     4     4     0     0  2.154311804E+01 -3.077401041E+01 -4.193920458E+00  8.814005579E+01  7.962370761E+01  0.00000E+00  9.000E+00
     -11     1     5     5     0     0  3.760377194E+01  2.421688783E+01 -1.403507306E+02  1.473052236E+02  2.697398305E-06  0.00000E+00  9.000E+00
      12     1     5     5     0     0  5.675754993E+01  6.148517736E+00 -2.841331039E+01  6.376942804E+01  1.168007728E-06  0.00000E+00  9.000E+00
      13     1     6     6     0     0 -5.565235663E+00  2.484743087E+01  3.818239119E+00  2.574773036E+01  9.185692672E-07  0.00000E+00  9.000E+00
     -14     1     6     6     0     0  2.710835370E+01 -5.562144128E+01 -8.012159577E+00  6.239232542E+01  1.503171946E-06  0.00000E+00  9.000E+00
       5     1     3     3   502     0 -5.141275916E+01  3.239845564E+01 -6.880200356E+01  9.191958402E+01  4.750000000E+00  0.00000E+00  9.000E+00
      -5     1     4     4     0   512 -8.335970390E+01 -6.023068758E+01 -8.987400580E+01  1.366619017E+02  4.750000000E+00  0.00000E+00  9.000E+00
       1     1     1     2   513     0  1.886802315E+01  2.824083678E+01 -1.114358403E+02  1.164967538E+02  2.336015456E-06  0.00000E+00  9.000E+00
</event>
<event>
     13  10001  1.00000E+00  2.44493E+01 -1.00000E+00  1.63519E-01
      21    -1     0     0   502   511  0.000000000E+00  0.000000000E+00  3.875665000E+02  3.875665000E+02  0.000000000E+00  0.00000E+00  9.000E+00
      21    -1     0     0   503   504  0.000000000E+00  0.000000000E+00 -2.111692122E+02  2.111692122E+02  0.000000000E+00  0.00000E+00  9.000E+00
       6     2     1     2   502     0  3.627407541E+01 -4.598503647E+01 -1.268379238E+02  2.215903676E+02  1.720000000E+02  0.00000E+00  9.000E+00
      -6     2     1     2     0   504 -3.384661732E+01  2.165649684E+01  1.825710750E+02  2.540291219E+02  1.720000000E+02  0.00000E+00  9.000E+00
      24     2     3     3     0     0  6.392045858E+01  2.354453406E+01 -6.836680178E+01  1.265108310E+02  8.179731454E+01  0.00000E+00  9.000E+00
     -24     2     4     4     0     0 -5.156079589E+01  4.296014663E+00  2.010911984E+02  2.227124181E+02  8.053682195E+01  0.00000E+00  9.000E+00
     -11     1     5     5     0     0  3.464133623E+01 -8.291378388E+00 -7.473734335E+01  8.279154318E+01  2.132480600E-06  0.00000E+00  9.000E+00
      12     1     5     5     0     0  2.927912235E+01  3.183591245E+01  6.370541576E+00  4.371928782E+01  1.035818291E-06  0.00000E+00  9.000E+00
      13     1     6     6     0     0  1.915350696E+01 -1.254441256E+01  5.339532491E+01  5.809715860E+01  6.743495762E-07  0.00000E+00  9.000E+00
     -14     1     6     6     0     0 -7.071430285E+01  1.684042722E+01  1.476958735E+02  1.646152595E+02  2.697398305E-06  0.00000E+00  9.000E+00
       5     1     3     3   502     0 -2.764638318E+01 -6.952957053E+01 -5.847112200E+01  9.507953664E+01  4.750000000E+00  0.00000E+00  9.000E+00
      -5     1     4     4     0   504  1.771417857E+01  1.736048218E+01 -1.852012344E+01  3.131670379E+01  4.750000000E+00  0.00000E+00  9.000E+00
      21     1     1     2   503   511 -2.427458088E+00  2.432853963E+01  1.206641366E+02  1.231162226E+02  0.000000000E+00  0.00000E+00  9.000E+00
</event>
<event>
     13  10001  1.00000E+00  1.32097E+01 -1.00000E+00  1.88124E-01
       1    -1     0     0   503     0  0.000000000E+00  0.000000000E+00  1.707455051E+03  1.707455051E+03  0.000000000E+00  0.00000E+00  9.000E+00
      21    -1     0     0   502   503  0.000000000E+00  0.000000000E+00 -5.848630388E+01  5.848630388E+01  0.000000000E+00  0.00000E+00  9.000E+00
       6     2     1     2   502     0 -1.258472517E+01 -1.949364813E+01  1.486944090E+02  2.285440983E+02  1.720000000E+02  0.00000E+00  9.000E+00
      -6     2     1     2     0   504  2.579368597E+01  1.963157120E+01  3.949690536E+02  4.320130393E+02  1.720000000E+02  0.00000E+00  9.000E+00
      24     2     3     3     0     0 -4.215879009E+01 -4.077711201E+01  1.617062639E+02  1.895635645E+02  7.965734585E+01  0.00000E+00  9.000E+00
     -24     2     4     4     0     0  1.091848291E+01  6.513980187E+01  3.515565529E+02  3.672096563E+02  8.299707690E+01  0.00000E+00  9.000E+00
     -11     1     5     5     0     0 -9.040499130E+00 -3.021838197E+00  1.296123230E+02  1.299623654E+02  3.814697266E-06  0.00000E+00  9.000E+00
      12     1     5     5     0     0 -3.311829096E+01 -3.775527381E+01  3.209394090E+01  5.960119914E+01  1.168007728E-06  0.00000E+00  9.000E+00
      13     1     6     6     0     0 -3.446880136E+01  1.968194118E+01  1.002176496E+02  1.077917175E+02  2.336015456E-06  0.00000E+00  9.000E+00
     -14     1     6     6     0     0  4.538728427E+01  4.545786070E+01  2.513389033E+02  2.594179388E+02  0.000000000E+00  0.00000E+00  9.000E+00
       5     1     3     3   502     0  2.957406492E+01  2.128346387E+01 -1.301185494E+01  3.898053385E+01  4.750000000E+00  0.00000E+00  9.000E+00
      -5     1     4     4     0   504  1.487520305E+01 -4.550823067E+01  4.341250071E+01  6.480338296E+01  4.750000000E+00  0.00000E+00  9.000E+00
       1     1     1     2   504     0 -1.320896080E+01 -1.379230685E-01  1.105305284E+03  1.105384217E+03  0.000000000E+00  0.00000E+00  9.000E+00
</event>
<event>
     13  10001  1.00000E+00  3.01696E+01 -1.00000E+00  1.56568E-01
      21    -1     0     0   503   511  0.000000000E+00  0.000000000E+00  3.258499589E+02  3.258499589E+02  0.000000000E+00  0.00000E+00  9.000E+00
      21    -1     0     0   502   503  0.000000000E+00  0.000000000E+00 -4.094407988E+02  4.094407988E+02  0.000000000E+00  0.00000E+00  9.000E+00
       6     2     1     2   502     0  4.687120032E+01 -7.613129258E+01 -2.523298626E+02  3.181937188E+02  1.720000000E+02  0.00000E+00  9.000E+00
      -6     2     1     2     0   504 -4.075611949E+01  4.658789112E+01 -5.534310293E+01  1.909930677E+02  1.720000000E+02  0.00000E+00  9.000E+00
      24     2     3     3     0     0  4.228467324E+01 -2.668781881E+01 -4.389366098E+01  1.038717508E+02  7.976499154E+01  0.00000E+00  9.000E+00
     -24     2     4     4     0     0 -3.725438041E+01  3.611482029E+01 -1.030799702E+02  1.417658559E+02  8.234019991E+01  0.00000E+00  9.000E+00
     -11     1     5     5     0     0  4.079564246E+01 -3.977335291E+01  1.104221770E+00  5.698616807E+01  1.273155770E-07  0.00000E+00  9.000E+00
      12     1     5     5     0     0  1.489030782E+00  1.308553411E+01 -4.499788275E+01  4.688558272E+01  8.259061849E-07  0.00000E+00  9.000E+00
      13     1     6     6     0     0 -1.678197273E+01  5.342298580E+01 -2.915936374E+01  6.313413113E+01  1.877309769E-06  0.00000E+00  9.000E+00
     -14     1     6     6     0     0 -2.047240768E+01 -1.730816551E+01 -7.392060648E+01  7.863172472E+01  1.907348633E-06  0.00000E+00  9.000E+00
       5     1     3     3   502     0  4.586527082E+00 -4.944347377E+01 -2.084362016E+02  2.143219680E+02  4.750000000E+00  0.00000E+00  9.000E+00
      -5     1     4     4     0   504 -3.501739085E+00  1.047307083E+01  4.773686729E+01  4.922721187E+01  4.750000000E+00  0.00000E+00  9.000E+00
      21     1     1     2   504   511 -6.115080832E+00  2.954340145E+01  2.240821256E+02  2.261039712E+02  2.697398305E-06  0.00000E+00  9.000E+00
</event>
<event>
     13  10001  1.00000E+00  1.12219E+01 -1.00000E+00  1.95989E-01
       2    -1     0     0   502     0  0.000000000E+00  0.000000000E+00  1.100558531E+03  1.100558531E+03  0.000000000E+00  0.00000E+00  9.000E+00
      -2    -1     0     0     0   513  0.000000000E+00  0.000000000E+00 -1.721277855E+02  1.721277855E+02  0.000000000E+00  0.00000E+00  9.000E+00
       6     2     1     2   502     0  6.563285576E+01 -4.747512730E+00  3.478852894E+02  3.936221351E+02  1.720000000E+02  0.00000E+00  9.000E+00
      -6     2     1     2     0   512 -5.794622003E+01  1.292355244E+01  7.182313341E+02  7.409217448E+02  1.720000000E+02  0.00000E+00  9.000E+00
      24     2     3     3     0     0  3.312551353E+01  5.812521000E+01  1.451844041E+02  1.788666509E+02  8.024293075E+01  0.00000E+00  9.000E+00
     -24     2     4     4     0     0 -8.476028124E+01  1.245343018E+01  3.329381099E+02  3.546671059E+02  8.718702791E+01  0.00000E+00  9.000E+00
     -11     1     5     5     0     0  9.629460463E+00 -1.408339010E+01  2.511561584E+00  1.724460284E+01  1.096223245E-06  0.00000E+00  9.000E+00
      12     1     5     5     0     0  2.349605307E+01  7.220860010E+01  1.426728425E+02  1.616220481E+02  2.697398305E-06  0.00000E+00  9.000E+00
      13     1     6     6     0     0 -7.575439736E+01  4.201214599E+01  2.828223286E+02  2.957908361E+02  5.394796609E-06  0.00000E+00  9.000E+00
     -14     1     6     6     0     0 -9.005883880E+00 -2.955871581E+01  5.011578123E+01  5.887626986E+01  1.907348633E-06  0.00000E+00  9.000E+00
       5     1     3     3   502     0  3.250734223E+01 -6.287272273E+01  2.027008854E+02  2.147554842E+02  4.750000000E+00  0.00000E+00  9.000E+00
      -5     1     4     4     0   512  2.681406121E+01  4.701222634E-01  3.852932243E+02  3.862546389E+02  4.750000000E+00  0.00000E+00  9.000E+00
      21     1     1     2   512   513 -7.686635728E+00 -8.176039711E+00 -1.376858777E+02  1.381424370E+02  1.907348633E-06  0.00000E+00  9.000E+00
</event>
<event>
     13  10001  1.00000E+00  6.49542E+01 -1.00000E+00  1.35651E-01
      21    -1     0     0   503   504  0.000000000E+00  0.000000000E+00  1.376250343E+03  1.376250343E+03  0.000000000E+00  0.00000E+00  9.000E+00
       1    -1     0     0   502     0  0.000000000E+00  0.000000000E+00 -5.365890775E+02  5.365890775E+02  0.000000000E+00  0.00000E+00  9.000E+00
       6     2     1     2   502     0 -6.748806478E+01  1.179218544E+02  5.109850610E+02  5.560125315E+02  1.720000000E+02  0.00000E+00  9.000E+00
      -6     2     1     2     0   504  4.795471143E+00 -1.009311298E+02  8.288171350E+02  8.524857376E+02  1.720000000E+02  0.00000E+00  9.000E+00
      24     2     3     3     0     0 -6.835032185E+01  1.488543420E+02  3.852912904E+02  4.264785640E+02  8.127241511E+01  0.00000E+00  9.000E+00
     -24     2     4     4     0     0 -3.223991439E+01 -1.257470285E+01  2.807093041E+02  2.960477493E+02  8.745868307E+01  0.00000E+00  9.000E+00
     -11     1     5     5     0     0 -5.612825460E+01  4.525367738E+01  2.150814337E+02  2.268442184E+02  4.672030912E-06  0.00000E+00  9.000E+00
      12     1     5     5     0     0 -1.222206724E+01  1.036006646E+02  1.702098567E+02  1.996343456E+02  2.697398305E-06  0.00000E+00  9.000E+00
      13     1     6     6     0     0  9.302755945E+00 -4.100142082E+01  1.004952621E+02  1.089355566E+02  1.348699152E-06  0.00000E+00  9.000E+00
     -14     1     6     6     0     0 -4.154267034E+01  2.842671797E+01  1.802140419E+02  1.871121927E+02  3.303624740E-06  0.00000E+00  9.000E+00
       5     1     3     3   502     0  8.622570676E-01 -3.093248758E+01  1.256937706E+02  1.295339675E+02  4.750000000E+00  0.00000E+00  9.000E+00
      -5     1     4     4     0   504  3.703538554E+01 -8.835642699E+01  5.481078310E+02  5.564379883E+02  4.750000000E+00  0.00000E+00  9.000E+00
       1     1     1     2   503     0  6.269259364E+01 -1.699072460E+01 -5.001409308E+02  5.043411511E+02  5.394796609E-06  0.00000E+00  9.000E+00
</event>
<event>
     13  10001  1.00000E+00  1.14521E+01 -1.00000E+00  1.94972E-01
      21    -1     0     0   502   511  0.000000000E+00  0.000000000E+00  1.673060256E+02  1.673060256E+02  0.000000000E+00  0.00000E+00  9.000E+00
      21    -1     0     0   503   504  0.000000000E+00  0.000000000E+00 -3.068327458E+02  3.068327458E+02  0.000000000E+00  0.00000E+00  9.000E+00
       6     2     1     2   502     0 -1.038204368E+02  7.040120575E+01 -7.250333992E+00  2.130060567E+02  1.720000000E+02  0.00000E+00  9.000E+00
      -6     2     1     2     0   504  1.061248871E+02 -5.918332672E+01 -1.339143477E+02  2.495640406E+02  1.720000000E+02  0.00000E+00  9.000E+00
      24     2     3     3     0     0  1.579706443E+01  1.928448354E+01  8.258737988E+00  8.191692791E+01  7.759341322E+01  0.00000E+00  9.000E+00
     -24     2     4     4     0     0  1.644671620E+01 -7.469090088E+01 -1.084111948E+02  1.549298369E+02  8.000651258E+01  0.00000E+00  9.000E+00
     -11     1     5     5     0     0 -4.370862280E+00  4.627978088E+01 -2.475175752E+00  4.655157409E+01  1.252761457E-06  0.00000E+00  9.000E+00
      12     1     5     5     0     0  2.016792671E+01 -2.699529734E+01  1.073391374E+01  3.536535381E+01  1.105501472E-06  0.00000E+00  9.000E+00
      13     1     6     6     0     0  1.348055996E+01 -2.240407025E+01 -9.813717532E+01  1.015606865E+02  1.348699152E-06  0.00000E+00  9.000E+00
     -14     1     6     6     0     0  2.966156242E+00 -5.228683063E+01 -1.027401949E+01  5.336915042E+01  7.251217997E-07  0.00000E+00  9.000E+00
       5     1     3     3   502     0 -1.196175012E+02  5.111672221E+01 -1.550907198E+01  1.310891288E+02  4.750000000E+00  0.00000E+00  9.000E+00
      -5     1     4     4     0   504  8.967817092E+01  1.550757416E+01 -2.550315289E+01  9.463420367E+01  4.750000000E+00  0.00000E+00  9.000E+00
      21     1     1     2   503   511 -2.304450347E+00 -1.121787904E+01  1.637961436E+00  1.156867404E+01  3.002500784E-07  0.00000E+00  9.000E+00
</event>
<event>
     13  10001  1.00000E+00  2.71951E+01 -1.00000E+00  1.59922E-01
      21    -1     0     0   502   503  0.000000000E+00  0.000000000E+00  2.220210310E+02  2.220210310E+02  0.000000000E+00  0.00000E+00  9.000E+00
       1    -1     0     0   503     0  0.000000000E+00  0.000000000E+00 -8.541894356E+02  8.541894356E+02  0.000000000E+00  0.00000E+00  9.000E+00
       6     2     1     2   502     0  1.447737207E+02 -1.508816967E+01  1.207678801E+02  2.556481252E+02  1.720000000E+02  0.00000E+00  9.000E+00
      -6     2     1     2     0   504 -1.218884467E+02  2.977964263E+01 -3.058805029E+02  3.726801613E+02  1.720000000E+02  0.00000E+00  9.000E+00
      24     2     3     3     0     0  2.098568697E+01  2.722625223E+01  9.436420812E+01  1.221052333E+02  6.945081966E+01  0.00000E+00  9.000E+00
     -24     2     4     4     0     0 -1.354612489E+02 -1.543914095E+01 -1.776638396E+02  2.359650027E+02  7.434329535E+01  0.00000E+00  9.000E+00
     -11     1     5     5     0     0 -1.532629248E+01  5.732932931E+00 -2.402239184E+00  1.653881840E+01  1.228781231E-07  0.00000E+00  9.000E+00
      12     1     5     5     0     0  3.631197945E+01  2.149331930E+01  9.676644730E+01  1.055664149E+02  1.348699152E-06  0.00000E+00  9.000E+00
      13     1     6     6     0     0 -7.112676771E+01  5.478150141E+00 -1.433298174E+02  1.601014171E+02  1.907348633E-06  0.00000E+00  9.000E+00
     -14     1     6     6     0     0 -6.433448117E+01 -2.091729109E+01 -3.433402227E+01  7.586358559E+01  1.581489940E-06  0.00000E+00  9.000E+00
       5     1     3     3   502     0  1.237880337E+02 -4.231442190E+01  2.640367198E+01  1.335428920E+02  4.750000000E+00  0.00000E+00  9.000E+00
      -5     1     4     4     0   504  1.357280217E+01  4.521878358E+01 -1.282166633E+02  1.367151586E+02  4.750000000E+00  0.00000E+00  9.000E+00
       1     1     1     2   504     0 -2.288527401E+01 -1.469147296E+01 -4.470557818E+02  4.478821800E+02  5.394796609E-06  0.00000E+00  9.000E+00
</event>
<event>
     13  10001  1.00000E+00  2.45383E+01 -1.00000E+00  1.63393E-01
      21    -1     0     0   503   504  0.000000000E+00  0.000000000E+00  7.897984135E+02  7.897984135E+02  0.000000000E+00  0.00000E+00  9.000E+00
      21    -1     0     0   502   511  0.000000000E+00  0.000000000E+00 -7.729027993E+01  7.729027993E+01  0.000000000E+00  0.00000E+00  9.000E+00
       6     2     1     2   502     0  2.402537972E+01  5.167461589E+01  4.866279012E+02  5.192669824E+02  1.720000000E+02  0.00000E+00  9.000E+00
      -6     2     1     2     0   504 -3.875096426E+01 -7.130334915E+01  2.495288020E+02  3.137426141E+02  1.720000000E+02  0.00000E+00  9.000E+00
      24     2     3     3     0     0  7.110361640E+01 -2.881028814E+00  2.789678374E+02  2.994080655E+02  8.220772960E+01  0.00000E+00  9.000E+00
     -24     2     4     4     0     0  3.143041587E+01 -1.120194339E+01  6.244547475E+01  1.050314765E+02  7.758104899E+01  0.00000E+00  9.000E+00
     -11     1     5     5     0     0  5.285504690E+01 -5.724359431E+00  2.755423561E+02  2.806243295E+02  3.814697266E-06  0.00000E+00  9.000E+00
      12     1     5     5     0     0  1.824856949E+01  2.843330617E+00  3.425481255E+00  1.878373603E+01  4.578319638E-07  0.00000E+00  9.000E+00
      13     1     6     6     0     0  1.088866912E+01 -2.456417043E+01  7.341903876E+01  7.818130746E+01  0.000000000E+00  0.00000E+00  9.000E+00
     -14     1     6     6     0     0  2.054174675E+01  1.336222704E+01 -1.097356401E+01  2.685016905E+01  7.907449699E-07  0.00000E+00  9.000E+00
       5     1     3     3   502     0 -4.707823667E+01  5.455564470E+01  2.076600638E+02  2.198589169E+02  4.750000000E+00  0.00000E+00  9.000E+00
      -5     1     4     4     0   504 -7.018138013E+01 -6.010140576E+01  1.870833273E+02  2.087111376E+02  4.750000000E+00  0.00000E+00  9.000E+00
      21     1     1     2   503   511  1.472558454E+01  1.962873326E+01 -2.364856960E+01  3.407909702E+01  7.539457465E-07  0.00000E+00  9.000E+00
</event>
<event>
     13  10001  1.00000E+00  4.13134E+01 -1.00000E+00  1.47239E-01
      -2    -1     0     0     0   513  0.000000000E+00  0.000000000E+00  2.111564439E+02  2.111564439E+02  0.000000000E+00  0.00000E+00  9.000E+00
       2    -1     0     0   502     0  0.000000000E+00  0.000000000E+00 -8.159808983E+02  8.159808983E+02  0.000000000E+00  0.00000E+00  9.000E+00
       6     2     1     2   502     0  3.260309729E+02  1.496906232E+02 -1.735510589E+02  4.340592678E+02  1.720000000E+02  0.00000E+00  9.000E+00
      -6     2     1     2     0   512 -2.979177307E+02 -1.194177816E+02 -4.022393149E+02  5.425827562E+02  1.720000000E+02  0.00000E+00  9.000E+00
      24     2     3     3     0     0  2.777729086E+02  8.736705917E+01 -8.165842337E+01  3.128986869E+02  8.029133448E+01  0.00000E+00  9.000E+00
     -24     2     4     4     0     0 -1.511552145E+02 -1.961270926E+01 -1.217631879E+02  2.106344034E+02  7.942304895E+01  0.00000E+00  9.000E+00
     -11     1     5     5     0     0  1.579188321E+02  2.045968001E+01 -7.352424647E+01  1.753931893E+02  1.907348633E-06  0.00000E+00  9.000E+00
      12     1     5     5     0     0  1.198540765E+02  6.690737916E+01 -8.134176897E+00  1.375054977E+02  1.474537477E-06  0.00000E+00  9.000E+00
      13     1     6     6     0     0 -1.567951019E+01 -9.851482753E+00  1.029953793E+01  2.118913009E+01  7.996802250E-07  0.00000E+00  9.000E+00
     -14     1     6     6     0     0 -1.354757043E+02 -9.761226505E+00 -1.320627258E+02  1.894452733E+02  1.907348633E-06  0.00000E+00  9.000E+00
       5     1     3     3   502     0  4.825806427E+01  6.232356400E+01 -9.189263554E+01  1.211605809E+02  4.750000000E+00  0.00000E+00  9.000E+00
      -5     1     4     4     0   512 -1.467625162E+02 -9.980507234E+01 -2.804761270E+02  3.319483528E+02  4.750000000E+00  0.00000E+00  9.000E+00
      21     1     1     2   512   513 -2.811324215E+01 -3.027284158E+01 -2.903408058E+01  5.049531816E+01  8.920806376E-07  0.00000E+00  9.000E+00
</event>
<event>
     13  10001  1.00000E+00  1.19820E+02 -1.00000E+00  1.22649E-01
      21    -1     0     0   503   504  0.000000000E+00  0.000000000E+00  1.964103941E+02  1.964103941E+02  0.000000000E+00  0.00000E+00  9.000E+00
      21    -1     0     0   511   503  0.000000000E+00  0.000000000E+00 -5.154699949E+02  5.154699949E+02  0.000000000E+00  0.00000E+00  9.000E+00
       6     2     1     2   502     0 -7.754991823E+01  1.904991271E+01  1.141649509E+01  1.899769074E+02  1.720000000E+02  0.00000E+00  9.000E+00
      -6     2     1     2     0   504  1.954147388E+02 -4.060906776E+01 -1.440273000E+02  3.002730086E+02  1.720000000E+02  0.00000E+00  9.000E+00
      24     2     3     3     0     0 -7.185259842E+01 -3.685117648E+01 -3.179664280E+01  1.189323509E+02  8.132079985E+01  0.00000E+00  9.000E+00
     -24     2     4     4     0     0  9.407356561E+01 -7.233498903E+00 -5.081828999E+00  1.250235624E+02  8.187128258E+01  0.00000E+00  9.000E+00
     -11     1     5     5     0     0 -7.962057072E+01 -2.013177859E+01 -4.736192447E+01  9.480440749E+01  9.536743164E-07  0.00000E+00  9.000E+00
      12     1     5     5     0     0  7.767972296E+00 -1.671939789E+01  1.556528167E+01  2.412794340E+01  5.840038640E-07  0.00000E+00  9.000E+00
      13     1     6     6     0     0  3.269886920E+01 -2.491058834E+01  3.116536703E+01  5.158520680E+01  1.348699152E-06  0.00000E+00  9.000E+00
     -14     1     6     6     0     0  6.137469641E+01  1.767708944E+01 -3.624719603E+01  7.343835558E+01  1.581489940E-06  0.00000E+00  9.000E+00
       5     1     3     3   502     0 -5.697319804E+00  5.590108919E+01  4.321313789E+01  7.104455652E+01  4.750000000E+00  0.00000E+00  9.000E+00
      -5     1     4     4     0   504  1.013411732E+02 -3.337556885E+01 -1.389454710E+02  1.752494462E+02  4.750000000E+00  0.00000E+00  9.000E+00
      21     1     1     2   511   502 -1.178648206E+02  2.155915504E+01 -1.864487959E+02  2.216304731E+02  4.672030912E-06  0.00000E+00  9.000E+00
</event>
<event>
     13  10001  1.00000E+00  1.66685E+01 -1.00000E+00  1.77976E-01
      21    -1     0     0   502   503  0.000000000E+00  0.000000000E+00  4.135394041E+02  4.135394041E+02  0.000000000E+00  0.00000E+00  9.000E+00
      21    -1     0     0   503   512  0.000000000E+00  0.000000000E+00 -1.336421162E+02  1.336421162E+02  0.000000000E+00  0.00000E+00  9.000E+00
       6     2     1     2   502     0 -5.023151729E+01 -7.976365395E+01  9.607480217E+01  2.184028696E+02  1.720000000E+02  0.00000E+00  9.000E+00
      -6     2     1     2     0   504  5.904026131E+01  6.561282523E+01  2.176227360E+02  2.910918249E+02  1.720000000E+02  0.00000E+00  9.000E+00
      24     2     3     3     0     0 -9.597495312E+01 -8.188045446E+01  7.818170877E+01  1.690098735E+02  8.084774155E+01  0.00000E+00  9.000E+00
     -24     2     4     4     0     0 -3.361405901E+01  4.092028747E+01  9.575261327E+01  1.359485562E+02  8.067882065E+01  0.00000E+00  9.000E+00
     -11     1     5     5     0     0 -8.142052796E+00 -5.384446468E+01  4.622389477E+01  7.142946065E+01  1.168007728E-06  0.00000E+00  9.000E+00
      12     1     5     5     0     0 -8.783290032E+01 -2.803598978E+01  3.195781400E+01  9.758041288E+01  8.259061849E-07  0.00000E+00  9.000E+00
      13     1     6     6     0     0 -8.739684500E+00  2.663436987E+01 -7.309551026E+00  2.896897098E+01  3.862822472E-07  0.00000E+00  9.000E+00
     -14     1     6     6     0     0 -2.487437451E+01  1.428591760E+01  1.030621643E+02  1.069795852E+02  1.907348633E-06  0.00000E+00  9.000E+00
       5     1     3     3   502     0  4.574343583E+01  2.116800514E+00  1.789309340E+01  4.939299603E+01  4.750000000E+00  0.00000E+00  9.000E+00
      -5     1     4     4     0   504  9.265432032E+01  2.469253776E+01  1.218701228E+02  1.551432687E+02  4.750000000E+00  0.00000E+00  9.000E+00
      21     1     1     2   504   512 -8.808744020E+00  1.415082872E+01 -3.380025024E+01  3.768682583E+01  9.536743164E-07  0.00000E+00  9.000E+00
</event>
<event>
     13  10001  1.00000E+00  2.72385E+01 -1.00000E+00  1.59869E-01
       1    -1     0     0   502     0  0.000000000E+00  0.000000000E+00  1.053236304E+03  1.053236304E+03  0.000000000E+00  0.00000E+00  9.000E+00
      21    -1     0     0   511   512  0.000000000E+00  0.000000000E+00 -6.179405899E+01  6.179405899E+01  0.000000000E+00  0.00000E+00  9.000E+00
       6     2     1     2   502     0  2.667725093E+01  1.033704104E+02  1.919277053E+02  2.789576340E+02  1.720000000E+02  0.00000E+00  9.000E+00
      -6     2     1     2     0   512 -6.584940999E+00 -1.217615522E+02  7.549922108E+02  7.838791204E+02  1.720000000E+02  0.00000E+00  9.000E+00
      24     2     3     3     0     0 -4.385202276E+01  7.446736602E+01  7.861996432E+01  1.423158721E+02  8.126696837E+01  0.00000E+00  9.000E+00
     -24     2     4     4     0     0 -4.546303907E+01 -1.393788228E+02  5.671610189E+02  5.912006476E+02  7.970721539E+01  0.00000E+00  9.000E+00
     -11     1     5     5     0     0 -4.042801870E+01  1.497179637E+01  6.984591000E+01  8.207941597E+01  2.336015456E-06  0.00000E+00  9.000E+00
      12     1     5     5     0     0 -3.424004057E+00  5.949556965E+01  8.774054314E+00  6.023645608E+01  2.264976501E-06  0.00000E+00  9.000E+00
      13     1     6     6     0     0 -1.544865504E+01 -6.086162792E+01  3.910281090E+02  3.960376002E+02  0.000000000E+00  0.00000E+00  9.000E+00
     -14     1     6     6     0     0 -3.001438403E+01 -7.851719487E+01  1.761329099E+02  1.951630474E+02  4.672030912E-06  0.00000E+00  9.000E+00
       5     1     3     3   502     0  7.052927369E+01  2.890304442E+01  1.133077410E+02  1.366417619E+02  4.750000000E+00  0.00000E+00  9.000E+00
      -5     1     4     4     0   512  3.887809807E+01  1.761727063E+01  1.878311920E+02  1.926784729E+02  4.750000000E+00  0.00000E+00  9.000E+00
       1     1     1     2   511     0 -2.009230993E+01  1.839114172E+01  4.452232883E+01  5.219360858E+01  1.066240300E-06  0.00000E+00  9.000E+00
</event>
<event>
     13  10001  1.00000E+00  5.81679E+01 -1.00000E+00  1.38301E-01
       2    -1     0     0   502     0  0.000000000E+00  0.000000000E+00  1.606599300E+03  1.606599300E+03  0.000000000E+00  0.00000E+00  9.000E+00
      21    -1     0     0   513   512  0.000000000E+00  0.000000000E+00 -5.224794140E+01  5.224794140E+01  0.000000000E+00  0.00000E+00  9.000E+00
       6     2     1     2   502     0 -4.458711990E+00 -9.356764259E+01  1.226984608E+03  1.242517611E+03  1.720000000E+02  0.00000E+00  9.000E+00
      -6     2     1     2     0   512 -4.524927078E+01  6.335807330E+01  2.936169277E+02  3.490797075E+02  1.720000000E+02  0.00000E+00  9.000E+00
      24     2     3     3     0     0  5.627157501E+01 -2.865009263E+01  7.914752204E+02  7.980027678E+02  7.992543415E+01  0.00000E+00  9.000E+00
     -24     2     4     4     0     0 -9.841613682E+00  3.777210495E+00  6.324725269E+01  1.084631431E+02  8.748093371E+01  0.00000E+00  9.000E+00
     -11     1     5     5     0     0 -1.601692949E+01 -2.274214408E+01  2.861812401E+02  2.875299103E+02  7.629394531E-06  0.00000E+00  9.000E+00
      12     1     5     5     0     0  7.228850449E+01 -5.907948549E+00  5.052939803E+02  5.104728575E+02  0.000000000E+00  0.00000E+00  9.000E+00
      13     1     6     6     0     0 -5.371386308E+00 -4.175017199E+01  3.458043856E+01  5.447692523E+01  4.768371582E-07  0.00000E+00  9.000E+00
     -14     1     6     6     0     0 -4.470227374E+00  4.552738249E+01  2.866681414E+01  5.398621789E+01  2.158972058E-06  0.00000E+00  9.000E+00
       5     1     3     3   502     0 -6.073028700E+01 -6.491754995E+01  4.355093878E+02  4.445148427E+02  4.750000000E+00  0.00000E+00  9.000E+00
      -5     1     4     4     0   512 -3.540765709E+01  5.958086281E+01  2.303696750E+02  2.406165644E+02  4.750000000E+00  0.00000E+00  9.000E+00
       2     1     1     2   513     0  4.970798277E+01  3.020956928E+01  3.374982232E+01  6.724992293E+01  1.581489940E-06  0.00000E+00  9.000E+00
</event>
<event>
     13  10001  1.00000E+00  1.98111E+01 -1.00000E+00  1.71143E-01
      21    -1     0     0   503   511  0.000000000E+00  0.000000000E+00  6.533531298E+02  6.533531298E+02  0.000000000E+00  0.00000E+00  9.000E+00
      21    -1     0     0   502   503  0.000000000E+00  0.000000000E+00 -8.297511313E+01  8.297511313E+01  0.000000000E+00  0.00000E+00  9.000E+00
       6     2     1     2   502     0  1.820762538E+01  9.011643296E+00  2.763195326E+02  3.261122681E+02  1.720000000E+02  0.00000E+00  9.000E+00
      -6     2     1     2     0   504 -3.695509453E+01 -1.541577118E+01  7.767377880E+01  1.929262577E+02  1.720000000E+02  0.00000E+00  9.000E+00
      24     2     3     3     0     0  6.768404672E+01 -2.983502274E+01  1.643489828E+02  1.975939961E+02  8.100333560E+01  0.00000E+00  9.000E+00
     -24     2     4     4     0     0 -2.932863743E+01 -7.044076935E+01  2.452926789E+01  1.159014902E+02  8.372215653E+01  0.00000E+00  9.000E+00
     -11     1     5     5     0     0  3.319268316E+01 -5.635498137E+01  8.691897556E+01  1.087775090E+02  1.651812370E-06  0.00000E+00  9.000E+00
      12     1     5     5     0     0  3.449136356E+01  2.651995863E+01  7.743000726E+01  8.881648715E+01  0.000000000E+00  0.00000E+00  9.000E+00
      13     1     6     6     0     0  1.356889597E+01  5.743163768E+00 -1.402970429E+01  2.034530585E+01  6.743495762E-07  0.00000E+00  9.000E+00
     -14     1     6     6     0     0 -4.289753340E+01 -7.618393311E+01  3.855897218E+01  9.555618437E+01  1.261592536E-06  0.00000E+00  9.000E+00
       5     1     3     3   502     0 -4.947642134E+01  3.884666604E+01  1.119705497E+02  1.285182720E+02  4.750000000E+00  0.00000E+00  9.000E+00
      -5     1     4     4     0   504 -7.626457101E+00  5.502499816E+01  5.314451091E+01  7.702476751E+01  4.750000000E+00  0.00000E+00  9.000E+00
      21     1     1     2   504   511  1.874746915E+01  6.404127887E+00  2.163847053E+02  2.172897171E+02  3.814697266E-06  0.00000E+00  9.000E+00
</event>
<event>
     13  10001  1.00000E+00  3.08882E+02 -1.00000E+00  1.06888E-01
      21    -1     0     0   503   504  0.000000000E+00  0.000000000E+00  9.234401936E+02  9.234401936E+02  0.000000000E+00  0.00000E+00  9.000E+00
      21    -1     0     0   502   512  0.000000000E+00  0.000000000E+00 -3.496537504E+02  3.496537504E+02  0.000000000E+00  0.00000E+00  9.000E+00
       6     2     1     2   502     0  1.337903177E+00  1.377781780E+02  5.139222964E+02  5.591822091E+02  1.720000000E+02  0.00000E+00  9.000E+00
      -6     2     1     2     0   504 -3.037055217E+02 -7.467781613E+01 -9.361473867E+01  3.690007309E+02  1.720000000E+02  0.00000E+00  9.000E+00
      24     2     3     3     0     0  3.937007600E+01  8.700002437E+01  1.835095742E+02  2.227004169E+02  8.246638548E+01  0.00000E+00  9.000E+00
     -24     2     4     4     0     0 -3.156956287E+02 -5.527594647E+01 -9.945115903E+01  3.449836221E+02  8.002503503E+01  0.00000E+00  9.000E+00
     -11     1     5     5     0     0  2.182533287E+01  1.000826817E+02  1.348360183E+02  1.693329270E+02  2.697398305E-06  0.00000E+00  9.000E+00
      12     1     5     5     0     0  1.754474313E+01 -1.308265733E+01  4.867355590E+01  5.336748990E+01  1.348699152E-06  0.00000E+00  9.000E+00
      13     1     6     6     0     0 -1.115072987E+02 -5.028093004E+01 -6.270404373E+01  1.374548896E+02  4.473129043E-06  0.00000E+00  9.000E+00
     -14     1     6     6     0     0 -2.041883300E+02 -4.995016428E+00 -3.674711530E+01  2.075287325E+02  5.415829035E-06  0.00000E+00  9.000E+00
       5     1     3     3   502     0 -3.803217282E+01  5.077815367E+01  3.304127221E+02  3.364817922E+02  4.750000000E+00  0.00000E+00  9.000E+00
      -5     1     4     4     0   504  1.199010705E+01 -1.940186966E+01  5.836420356E+00  2.401710882E+01  4.750000000E+00  0.00000E+00  9.000E+00
      21     1     1     2   503   512  3.023676185E+02 -6.310036192E+01  1.534788855E+02  3.449110040E+02  6.031565972E-06  0.00000E+00  9.000E+00
</event>
<event>
     13  10001  1.00000E+00  1.80097E+01 -1.00000E+00  1.74846E-01
       2    -1     0     0   503     0  0.000000000E+00  0.000000000E+00  2.361719421E+03  2.361719421E+03  0.000000000E+00  0.00000E+00  9.000E+00
      21    -1     0     0   502   503  0.000000000E+00  0.000000000E+00 -3.170138567E+01  3.170138567E+01  0.000000000E+00  0.00000E+00  9.000E+00
       6     2     1     2   502     0  5.076563043E+01 -1.137706742E+01  4.678142130E+02  5.011394265E+02  1.720000000E+02  0.00000E+00  9.000E+00
      -6     2     1     2     0   504 -4.464309131E+01 -5.559946746E+00  5.125690281E+02  5.425264299E+02  1.720000000E+02  0.00000E+00  9.000E+00
      24     2     3     3     0     0  6.647411305E+01 -4.586997908E+01  4.393737287E+02  4.535165220E+02  7.813513694E+01  0.00000E+00  9.000E+00
     -24     2     4     4     0     0 -5.995437286E+01 -5.961429124E+01  3.179330387E+02  3.398887277E+02  8.540807671E+01  0.00000E+00  9.000E+00
     -11     1     5     5     0     0  1.073413006E+01 -2.999100629E+01  3.114639972E+02  3.130886513E+02  3.814697266E-06  0.00000E+00  9.000E+00
      12     1     5     5     0     0  5.573998299E+01 -1.587897280E+01  1.279097315E+02  1.404278708E+02  1.907348633E-06  0.00000E+00  9.000E+00
      13     1     6     6     0     0 -1.070562418E+00 -6.066496696E+01  1.441955348E+02  1.564408405E+02  0.000000000E+00  0.00000E+00  9.000E+00
     -14     1     6     6     0     0 -5.888381045E+01  1.050675726E+00  1.737375039E+02  1.834478872E+02  0.000000000E+00  0.00000E+00  9.000E+00
       5     1     3     3   502     0 -1.570848262E+01  3.449291166E+01  2.844048437E+01  4.762290449E+01  4.750000000E+00  0.00000E+00  9.000E+00
      -5     1     4     4     0   504  1.531128155E+01  5.405434449E+01  1.946359894E+02  2.026377022E+02  4.750000000E+00  0.00000E+00  9.000E+00
       2     1     1     2   504     0 -6.122539119E+00  1.693701417E+01  1.349634794E+03  1.349754950E+03  2.157918644E-05  0.00000E+00  9.000E+00
</event>
<event>
     13  10001  1.00000E+00  1.78368E+01 -1.00000E+00  1.75229E-01
      -2    -1     0     0     0   511  0.000000000E+00  0.000000000E+00  4.484994554E+01  4.484994554E+01  0.000000000E+00  0.00000E+00  9.000E+00
       2    -1     0     0   502     0  0.000000000E+00  0.000000000E+00 -1.524646318E+03  1.524646318E+03  0.000000000E+00  0.00000E+00  9.000E+00
       6     2     1     2   502     0  1.460979007E+01  1.294050014E+02 -4.623054438E+02  5.101660747E+02  1.720000000E+02  0.00000E+00  9.000E+00
      -6     2     1     2     0   512  6.933785705E-01 -1.385682651E+02 -1.017800175E+03  1.041490682E+03  1.720000000E+02  0.00000E+00  9.000E+00
      24     2     3     3     0     0  3.271929569E+01  5.162587277E+01 -3.861792619E+02  3.997337193E+02  8.316754743E+01  0.00000E+00  9.000E+00
     -24     2     4     4     0     0 -6.146055119E+01 -5.269848214E+01 -5.454193206E+02  5.573388830E+02  8.117798833E+01  0.00000E+00  9.000E+00
     -11     1     5     5     0     0  5.242273653E+01  2.229673122E+01 -1.418314929E+02  1.528445612E+02  1.907348633E-06  0.00000E+00  9.000E+00
      12     1     5     5     0     0 -1.970344084E+01  2.932914156E+01 -2.443477690E+02  2.468891580E+02  4.672030912E-06  0.00000E+00  9.000E+00
      13     1     6     6     0     0 -7.248679144E+00 -3.712920165E+01 -3.930280360E+02  3.948444732E+02  5.394796609E-06  0.00000E+00  9.000E+00
     -14     1     6     6     0     0 -5.421187205E+01 -1.556928049E+01 -1.523912847E+02  1.624944098E+02  1.907348633E-06  0.00000E+00  9.000E+00
       5     1     3     3   502     0 -1.810950562E+01  7.777912864E+01 -7.612618192E+01  1.104323554E+02  4.750000000E+00  0.00000E+00  9.000E+00
      -5     1     4     4     0   512  6.215392976E+01 -8.586978292E+01 -4.723808543E+02  4.841517991E+02  4.750000000E+00  0.00000E+00  9.000E+00
      21     1     1     2   512   511 -1.530316864E+01  9.163263643E+00  3.092462015E-01  1.783950684E+01  6.959117481E-07  0.00000E+00  9.000E+00
</event>
<event>
     13  10001  1.00000E+00  1.24055E+01 -1.00000E+00  1.91074E-01
      21    -1     0     0   513   504  0.000000000E+00  0.000000000E+00  3.285900600E+02  3.285900600E+02  0.000000000E+00  0.00000E+00  9.000E+00
      21    -1     0     0   502   503  0.000000000E+00  0.000000000E+00 -4.315092832E+02  4.315092832E+02  0.000000000E+00  0.00000E+00  9.000E+00
       6     2     1     2   502     0 -1.109448588E+02 -4.205662648E+01  2.473351489E+02  3.237841834E+02  1.720000000E+02  0.00000E+00  9.000E+00
      -6     2     1     2     0   504  9.897240197E+01  4.530578808E+01 -3.644641489E+02  4.174521130E+02  1.720000000E+02  0.00000E+00  9.000E+00
      24     2     3     3     0     0 -5.706891895E+01  3.874173779E+01  1.680585458E+02  1.983316630E+02  7.958636807E+01  0.00000E+00  9.000E+00
     -24     2     4     4     0     0  1.297004879E+02  2.296459686E+01 -3.368599223E+02  3.702514782E+02  7.913255105E+01  0.00000E+00  9.000E+00
     -11     1     5     5     0     0 -7.378434299E+01  1.417003372E+01  1.116907999E+02  1.346096352E+02  2.336015456E-06  0.00000E+00  9.000E+00
      12     1     5     5     0     0  1.671542404E+01  2.457170407E+01  5.636774595E+01  6.372202779E+01  1.507891493E-06  0.00000E+00  9.000E+00
      13     1     6     6     0     0  2.192720579E+01  2.447596985E+01 -1.583621193E+02  1.617356989E+02  1.907348633E-06  0.00000E+00  9.000E+00
     -14     1     6     6     0     0  1.077732821E+02 -1.511372990E+00 -1.784978029E+02  2.085157793E+02  3.303624740E-06  0.00000E+00  9.000E+00
       5     1     3     3   502     0 -5.387593990E+01 -8.079836427E+01  7.927660308E+01  1.254525204E+02  4.750000000E+00  0.00000E+00  9.000E+00
      -5     1     4     4     0   504 -3.072808595E+01  2.234119122E+01 -2.760422668E+01  4.720063476E+01  4.750000000E+00  0.00000E+00  9.000E+00
      21     1     1     2   513   503  1.197245688E+01 -3.249161602E+00  1.420977686E+01  1.886304676E+01  2.920019320E-07  0.00000E+00  9.000E+00
</event>
<event>
     13  10001  1.00000E+00  2.67898E+01 -1.00000E+00  1.60420E-01
       2    -1     0     0   511     0  0.000000000E+00  0.000000000E+00  5.328086820E+02  5.328086820E+02  0.000000000E+00  0.00000E+00  9.000E+00
      -2    -1     0     0     0   512  0.000000000E+00  0.000000000E+00 -1.470167177E+02  1.470167177E+02  0.000000000E+00  0.00000E+00  9.000E+00
       6     2     1     2   502     0  2.023954301E+02  4.861761603E+01  1.850439759E+02  3.273421081E+02  1.720000000E+02  0.00000E+00  9.000E+00
      -6     2     1     2     0   512 -1.829988422E+02 -3.013884282E+01  1.473287794E+02  2.927228985E+02  1.720000000E+02  0.00000E+00  9.000E+00
      24     2     3     3     0     0  1.252451824E+02 -8.936749650E+00  4.245215572E+01  1.552384899E+02  8.081201638E+01  0.00000E+00  9.000E+00
     -24     2     4     4     0     0 -1.571919353E+02 -1.429287242E+01  1.759994145E+02  2.507507764E+02  8.358568784E+01  0.00000E+00  9.000E+00
     -11     1     5     5     0     0  4.312448864E+01 -4.133526096E+01  2.725461545E+01  6.565926730E+01  7.539457465E-07  0.00000E+00  9.000E+00
      12     1     5     5     0     0  8.212069379E+01  3.239851131E+01  1.519754027E+01  8.957922256E+01  1.590450295E-06  0.00000E+00  9.000E+00
      13     1     6     6     0     0 -7.555087514E+01  1.051475143E+01  1.372823822E+02  1.570507791E+02  3.814697266E-06  0.00000E+00  9.000E+00
     -14     1     6     6     0     0 -8.164106017E+01 -2.480762385E+01  3.871703227E+01  9.369999730E+01  1.066240300E-06  0.00000E+00  9.000E+00
       5     1     3     3   502     0  7.715024764E+01  5.755436568E+01  1.425918202E+02  1.721036182E+02  4.750000000E+00  0.00000E+00  9.000E+00
      -5     1     4     4     0   512 -2.580690689E+01 -1.584597041E+01 -2.867063512E+01  4.197212217E+01  4.750000000E+00  0.00000E+00  9.000E+00
      21     1     1     2   511   502 -1.939658788E+01 -1.847877321E+01  5.341920900E+01  5.976039300E+01  1.348699152E-06  0.00000E+00  9.000E+00
</event>
<event>
     13  10001  1.00000E+00  3.62422E+02 -1.00000E+00  1.04626E-01
       2    -1     0     0   502     0  0.000000000E+00  0.000000000E+00  2.479501561E+03  2.479501561E+03  0.000000000E+00  0.00000E+00  9.000E+00
      21    -1     0     0   503   504  0.000000000E+00  0.000000000E+00 -1.270308128E+02  1.270308128E+02  0.000000000E+00  0.00000E+00  9.000E+00
       6     2     1     2   502     0  1.736213760E+02 -1.153582835E+01  1.110693504E+02  2.686965912E+02  1.720000000E+02  0.00000E+00  9.000E+00
      -6     2     1     2     0   504  1.546762854E+02  1.650612653E+02  7.244515471E+02  7.781927901E+02  1.720000000E+02  0.00000E+00  9.000E+00
      24     2     3     3     0     0  6.981158060E+01 -2.789131898E+01 -6.806787970E+00  1.107050656E+02  8.097960679E+01  0.00000E+00  9.000E+00
     -24     2     4     4     0     0  1.826835211E+02  1.544251118E+02  6.141549320E+02  6.638011873E+02  7.890089770E+01  0.00000E+00  9.000E+00
     -11     1     5     5     0     0  1.582516309E+01 -4.850437598E+01 -1.281584492E+01  5.260566658E+01  1.180111758E-06  0.00000E+00  9.000E+00
      12     1     5     5     0     0  5.398641752E+01  2.061305700E+01  6.009056951E+00  5.809939897E+01  1.238859277E-06  0.00000E+00  9.000E+00
      13     1     6     6     0     0  1.593204548E+01  4.120730925E+01  6.298930798E+01  7.693845156E+01  9.536743164E-07  0.00000E+00  9.000E+00
     -14     1     6     6     0     0  1.667514757E+02  1.132178025E+02  5.511656241E+02  5.868627357E+02  7.629394531E-06  0.00000E+00  9.000E+00
       5     1     3     3   502     0  1.038097954E+02  1.635549062E+01  1.178761383E+02  1.579915257E+02  4.750000000E+00  0.00000E+00  9.000E+00
      -5     1     4     4     0   504 -2.800723572E+01  1.063615351E+01  1.102966150E+02  1.143916028E+02  4.750000000E+00  0.00000E+00  9.000E+00
       2     1     1     2   503     0 -3.282976614E+02 -1.535254369E+02  1.516949851E+03  1.559642993E+03  2.157918644E-05  0.00000E+00  9.000E+00
</event>
<event>
     13  10001  1.00000E+00  7.90248E+01 -1.00000E+00  1.31190E-01
       1    -1     0     0   511     0  0.000000000E+00  0.000000000E+00  6.904519315E+02  6.904519315E+02  0.000000000E+00  0.00000E+00  9.000E+00
      -1    -1     0     0     0   512  0.000000000E+00  0.000000000E+00 -1.435108842E+02  1.435108842E+02  0.000000000E+00  0.00000E+00  9.000E+00
       6     2     1     2   502     0  2.230587043E+01 -1.074758880E+02  2.697686241E+02  3.382421158E+02  1.720000000E+02  0.00000E+00  9.000E+00
      -6     2     1     2     0   512  5.495313937E+01  1.240878320E+02  1.244052454E+01  2.194456749E+02  1.720000000E+02  0.00000E+00  9.000E+00
      24     2     3     3     0     0  4.206352002E+01 -3.071134881E+01  5.645876515E+01  1.106310053E+02  7.961846842E+01  0.00000E+00  9.000E+00
     -24     2     4     4     0     0 -1.274497436E+01  1.167065981E+02  3.781533890E+01  1.466173774E+02  7.927036694E+01  0.00000E+00  9.000E+00
     -11     1     5     5     0     0  3.027081768E+01 -3.642396714E+01 -5.154022843E+00  4.764023234E+01  4.256623047E-07  0.00000E+00  9.000E+00
      12     1     5     5     0     0  1.179270234E+01  5.712618337E+00  6.161278800E+01  6.299077299E+01  6.743495762E-07  0.00000E+00  9.000E+00
      13     1     6     6     0     0  1.850795507E+01  9.618072560E+01  4.620560100E+01  1.082969711E+02  1.784161275E-06  0.00000E+00  9.000E+00
     -14     1     6     6     0     0 -3.125292944E+01  2.052587250E+01 -8.390262097E+00  3.832040629E+01  6.307962682E-07  0.00000E+00  9.000E+00
       5     1     3     3   502     0 -1.975764959E+01 -7.676453921E+01  2.133098589E+02  2.276111105E+02  4.750000000E+00  0.00000E+00  9.000E+00
      -5     1     4     4     0   512  6.769811373E+01  7.381233871E+00 -2.537481436E+01  7.282829752E+01  4.750000000E+00  0.00000E+00  9.000E+00
      21     1     1     2   511   502 -7.725900980E+01 -1.661194396E+01  2.647318987E+02  2.762750251E+02  3.814697266E-06  0.00000E+00  9.000E+00
</event>
<event>
     13  10001  1.00000E+00  2.12084E+01 -1.00000E+00  1.68593E-01
      21    -1     0     0   503   504  0.000000000E+00  0.000000000E+00  1.756158925E+03  1.756158925E+03  0.000000000E+00  0.00000E+00  9.000E+00
      21    -1     0     0   512   503  0.000000000E+00  0.000000000E+00 -2.327787769E+01  2.327787769E+01  0.000000000E+00  0.00000E+00  9.000E+00
       6     2     1     2   502     0 -5.908616131E+00  6.874803012E+01  6.443752251E+02  6.704958121E+02  1.720000000E+02  0.00000E+00  9.000E+00
      -6     2     1     2     0   504 -1.248041988E+01 -7.931408809E+01  1.006121708E+03  1.023870782E+03  1.720000000E+02  0.00000E+00  9.000E+00
      24     2     3     3     0     0  4.212754543E+01 -1.083077615E+01  2.910853160E+02  3.051513424E+02  8.058935888E+01  0.00000E+00  9.000E+00
     -24     2     4     4     0     0 -3.937020186E+01 -2.166719713E+00  2.867074325E+02  2.998167507E+02  7.832129156E+01  0.00000E+00  9.000E+00
     -11     1     5     5     0     0  1.597106690E+01 -3.949297321E+01  8.106777954E+01  9.157922685E+01  1.907348633E-06  0.00000E+00  9.000E+00
      12     1     5     5     0     0  2.615647854E+01  2.866219705E+01  2.100175365E+02  2.135721155E+02  3.814697266E-06  0.00000E+00  9.000E+00
      13     1     6     6     0     0 -4.021540615E+01 -3.453866366E+01  1.430992154E+02  1.526026986E+02  1.907348633E-06  0.00000E+00  9.000E+00
     -14     1     6     6     0     0  8.452042876E-01  3.237194395E+01  1.436082171E+02  1.472140521E+02  1.907348633E-06  0.00000E+00  9.000E+00
       5     1     3     3   502     0 -4.803616156E+01  7.957880628E+01  3.532899091E+02  3.653444697E+02  4.750000000E+00  0.00000E+00  9.000E+00
      -5     1     4     4     0   504  2.688978198E+01 -7.714736838E+01  7.194142759E+02  7.240540309E+02  4.750000000E+00  0.00000E+00  9.000E+00
      21     1     1     2   512   502  1.838903601E+01  1.056605797E+01  8.238411376E+01  8.507020881E+01  1.651812370E-06  0.00000E+00  9.000E+00
</event>
<event>
     13  10001  1.00000E+00  1.43271E+01 -1.00000E+00  1.84447E-01
      21    -1     0     0   503   504  0.000000000E+00  0.000000000E+00  5.465524909E+01  5.465524909E+01  0.000000000E+00  0.00000E+00  9.000E+00
      21    -1     0     0   502   511  0.000000000E+00  0.000000000E+00 -8.575574087E+02  8.575574087E+02  0.000000000E+00  0.00000E+00  9.000E+00
       6     2     1     2   502     0  6.377953258E+00 -7.054314324E+01 -5.974895771E+02  6.257753655E+02  1.720000000E+02  0.00000E+00  9.000E+00
      -6     2     1     2     0   504 -1.674352777E+00  5.701017578E+01 -1.709707993E+02  2.491344573E+02  1.720000000E+02  0.00000E+00  9.000E+00
      24     2     3     3     0     0 -6.716080476E+01 -6.395762409E+01 -2.632616911E+02  2.834565664E+02  4.939388246E+01  0.00000E+00  9.000E+00
     -24     2     4     4     0     0 -1.009111248E+01 -3.567937833E+01 -1.002210750E+02  1.321289819E+02  7.771071607E+01  0.00000E+00  9.000E+00
     -11     1     5     5     0     0 -3.232676391E+01 -4.694174114E+01 -2.098880879E+02  2.174892093E+02  3.814697266E-06  0.00000E+00  9.000E+00
      12     1     5     5     0     0 -3.483404085E+01 -1.701588294E+01 -5.337360323E+01  6.596735705E+01  6.743495762E-07  0.00000E+00  9.000E+00
      13     1     6     6     0     0  5.239316417E+00 -3.340929382E+01 -3.301737071E+00  3.397841694E+01  6.222907608E-07  0.00000E+00  9.000E+00
     -14     1     6     6     0     0 -1.533042890E+01 -2.270084513E+00 -9.691933797E+01  9.815056498E+01  2.336015456E-06  0.00000E+00  9.000E+00
       5     1     3     3   502     0  7.353875802E+01 -6.585519156E+00 -3.342278860E+02  3.423187992E+02  4.750000000E+00  0.00000E+00  9.000E+00
      -5     1     4     4     0   504  8.416759705E+00  9.268955411E+01 -7.074972427E+01  1.170054754E+02  4.750000000E+00  0.00000E+00  9.000E+00
      21     1     1     2   503   511 -4.703600480E+00  1.353296746E+01 -3.444178315E+01  3.730283491E+01  6.743495762E-07  0.00000E+00  9.000E+00
</event>
<event>
     13  10001  1.00000E+00  1.18290E+02 -1.00000E+00  1.22896E-01
      21    -1     0     0   503   504  0.000000000E+00  0.000000000E+00  3.171724549E+02  3.171724549E+02  0.000000000E+00  0.00000E+00  9.000E+00
       4    -1     0     0   502     0  0.000000000E+00  0.000000000E+00 -2.937303713E+02  2.937303713E+02  0.000000000E+00  0.00000E+00  9.000E+00
       6     2     1     2   502     0  6.206565976E+01 -5.176046870E+01  6.887190629E+01  2.021351818E+02  1.720000000E+02  0.00000E+00  9.000E+00
      -6     2     1     2     0   504  4.636711142E+01  9.903518749E+01 -1.482541690E+02  2.520340771E+02  1.720000000E+02  0.00000E+00  9.000E+00
      24     2     3     3     0     0  8.895984022E+01  1.023374957E+01  5.521026785E+01  1.330281423E+02  8.142315499E+01  0.00000E+00  9.000E+00
     -24     2     4     4     0     0  2.340629186E+01  6.240265305E+01 -6.398733345E+00  1.036606666E+02  7.913687131E+01  0.00000E+00  9.000E+00
     -11     1     5     5     0     0  1.254906683E+01  1.942025266E+01  5.094787195E+01  5.594918184E+01  6.743495762E-07  0.00000E+00  9.000E+00
      12     1     5     5     0     0  7.641077339E+01 -9.186503089E+00  4.262395900E+00  7.707896047E+01  1.888630333E-06  0.00000E+00  9.000E+00
      13     1     6     6     0     0  2.291398723E+01  8.820862169E+00 -3.512994123E+01  4.285990191E+01  4.768371582E-07  0.00000E+00  9.000E+00
     -14     1     6     6     0     0  4.923046281E-01  5.358179088E+01  2.873120789E+01  6.080076467E+01  1.066240300E-06  0.00000E+00  9.000E+00
       5     1     3     3   502     0 -2.689418046E+01 -6.199421827E+01  1.366163844E+01  6.910703949E+01  4.750000000E+00  0.00000E+00  9.000E+00
      -5     1     4     4     0   504  2.296081956E+01  3.663253444E+01 -1.418554357E+02  1.483734105E+02  4.750000000E+00  0.00000E+00  9.000E+00
       4     1     1     2   503     0 -1.084327712E+02 -4.727471878E+01  1.028243464E+02  1.567335673E+02  3.015782986E-06  0.00000E+00  9.000E+00
</event>
<event>
     13  10001  1.00000E+00  1.07934E+02 -1.00000E+00  1.24684E-01
      21    -1     0     0   503   504  0.000000000E+00  0.000000000E+00  3.749607969E+02  3.749607969E+02  0.000000000E+00  0.00000E+00  9.000E+00
      21    -1     0     0   502   511  0.000000000E+00  0.000000000E+00 -2.213877492E+02  2.213877492E+02  0.000000000E+00  0.00000E+00  9.000E+00
       6     2     1     2   502     0  6.940359308E+01  3.328774553E+01  2.223208774E+02  2.914369662E+02  1.720000000E+02  0.00000E+00  9.000E+00
      -6     2     1     2     0   504  1.653594993E+01  3.201298185E+01  2.200207775E+00  1.757472889E+02  1.720000000E+02  0.00000E+00  9.000E+00
      24     2     3     3     0     0  4.551453820E+01  4.113074102E-01  5.907855234E+01  1.231450581E+02  9.799330404E+01  0.00000E+00  9.000E+00
     -24     2     4     4     0     0  2.768523903E+01  6.214696666E+01 -4.542286343E+01  1.181028347E+02  8.518406613E+01  0.00000E+00  9.000E+00
     -11     1     5     5     0     0  2.615879623E+01 -8.078415259E+00  8.523065801E+01  8.951987756E+01  1.651812370E-06  0.00000E+00  9.000E+00
      12     1     5     5     0     0  1.935574197E+01  8.489722669E+00 -2.615210567E+01  3.362518058E+01  1.066240300E-06  0.00000E+00  9.000E+00
      13     1     6     6     0     0  6.563951551E+00 -2.093677824E+01 -2.073416435E+00  2.203935568E+01  2.421152116E-07  0.00000E+00  9.000E+00
     -14     1     6     6     0     0  2.112128748E+01  8.308374490E+01 -4.334944700E+01  9.606347905E+01  1.846782373E-06  0.00000E+00  9.000E+00
       5     1     3     3   502     0  2.388905488E+01  3.287643812E+01  1.632423250E+02  1.682919080E+02  4.750000000E+00  0.00000E+00  9.000E+00
      -5     1     4     4     0   504 -1.114928910E+01 -3.013398481E+01  4.762307121E+01  5.764445419E+01  4.750000000E+00  0.00000E+00  9.000E+00
      21     1     1     2   503   511 -8.593954301E+01 -6.530072738E+01 -7.094803743E+01  1.291642910E+02  2.523185073E-06  0.00000E+00  9.000E+00
</event>
<event>
     13  10001  1.00000E+00  3.94943E+01 -1.00000E+00  1.48505E-01
      21    -1     0     0   503   512  0.000000000E+00  0.000000000E+00  2.299487521E+02  2.299487521E+02  0.000000000E+00  0.00000E+00  9.000E+00
      21    -1     0     0   502   503  0.000000000E+00  0.000000000E+00 -4.648523487E+02  4.648523487E+02  0.000000000E+00  0.00000E+00  9.000E+00
       6     2     1     2   502     0 -9.365353771E+01 -5.488933205E+01 -7.986979610E+01  2.185108881E+02  1.720000000E+02  0.00000E+00  9.000E+00
      -6     2     1     2     0   504  1.133480408E+02  8.912274267E+01 -2.721111194E+02  3.527309214E+02  1.720000000E+02  0.00000E+00  9.000E+00
      24     2     3     3     0     0 -8.079835913E+01 -5.023423831E+01 -1.217467150E+02  1.742032776E+02  8.045287919E+01  0.00000E+00  9.000E+00
     -24     2     4     4     0     0  1.481145075E+02  7.737470022E+01 -2.450699607E+02  3.068995951E+02  7.876118483E+01  0.00000E+00  9.000E+00
     -11     1     5     5     0     0 -5.123299154E+01 -5.034655721E+01 -1.252960636E+02  1.444254091E+02  3.568322551E-06  0.00000E+00  9.000E+00
      12     1     5     5     0     0 -2.956536759E+01  1.123188969E-01  3.549348570E+00  2.977786849E+01  1.054513813E-06  0.00000E+00  9.000E+00
      13     1     6     6     0     0  4.935904737E+01  5.863359248E+01 -1.504786077E+02  1.688728075E+02  1.907348633E-06  0.00000E+00  9.000E+00
     -14     1     6     6     0     0  9.875546018E+01  1.874110774E+01 -9.459135300E+01  1.380267876E+02  3.015782986E-06  0.00000E+00  9.000E+00
       5     1     3     3   502     0 -1.285517858E+01 -4.655093740E+00  4.187691891E+01  4.430761054E+01  4.750000000E+00  0.00000E+00  9.000E+00
      -5     1     4     4     0   504 -3.476646672E+01  1.174804244E+01 -2.704115864E+01  4.583132629E+01  4.750000000E+00  0.00000E+00  9.000E+00
      21     1     1     2   504   512 -1.969450312E+01 -3.423341062E+01  1.170773189E+02  1.235592912E+02  1.907348633E-06  0.00000E+00  9.000E+00
</event>
<event>
     13  10001  1.00000E+00  4.59176E+01 -1.00000E+00  1.44355E-01
      21    -1     0     0   502   503  0.000000000E+00  0.000000000E+00  7.014210504E+02  7.014210504E+02  0.000000000E+00  0.00000E+00  9.000E+00
      21    -1     0     0   503   511  0.000000000E+00  0.000000000E+00 -2.593080359E+02  2.593080359E+02  0.000000000E+00  0.00000E+00  9.000E+00
       6     2     1     2   502     0 -1.101761425E+01 -4.510105001E+01  6.158386743E+02  6.410902942E+02  1.720000000E+02  0.00000E+00  9.000E+00
      -6     2     1     2     0   504  1.755302433E+00  1.273224126E-01 -3.772717311E+01  1.760978049E+02  1.720000000E+02  0.00000E+00  9.000E+00
      24     2     3     3     0     0 -3.805539930E+01 -4.924528925E+01  6.013702322E+02  6.097835081E+02  7.947615141E+01  0.00000E+00  9.000E+00
     -24     2     4     4     0     0 -3.678352155E+01  5.497617207E+01 -2.053887363E+01  1.067318377E+02  8.120611369E+01  0.00000E+00  9.000E+00
     -11     1     5     5     0     0  1.326187959E+01 -4.528854838E+01  2.237880762E+02  2.287094951E+02  3.814697266E-06  0.00000E+00  9.000E+00
      12     1     5     5     0     0 -5.131727889E+01 -3.956740872E+00  3.775821560E+02  3.810740131E+02  7.629394531E-06  0.00000E+00  9.000E+00
      13     1     6     6     0     0 -2.559567567E+01  2.767992361E+01  3.002230465E+01  4.819393697E+01  8.259061849E-07  0.00000E+00  9.000E+00
     -14     1     6     6     0     0 -1.118784588E+01  2.729624846E+01 -5.056117828E+01  5.853790075E+01  2.523185073E-06  0.00000E+00  9.000E+00
       5     1     3     3   502     0  2.703778505E+01  4.144239243E+00  1.446844213E+01  3.130678611E+01  4.750000000E+00  0.00000E+00  9.000E+00
      -5     1     4     4     0   504  3.853882398E+01 -5.484884966E+01 -1.718829948E+01  6.936596717E+01  4.750000000E+00  0.00000E+00  9.000E+00
      21     1     1     2   504   511  9.262311814E+00  4.497372760E+01 -1.359984867E+02  1.435409871E+02  0.000000000E+00  0.00000E+00  9.000E+00
</event>
<event>
     13  10001  1.00000E+00  1.45335E+01 -1.00000E+00  1.83815E-01
      21    -1     0     0   502   503  0.000000000E+00  0.000000000E+00  1.266354541E+03  1.266354541E+03  0.000000000E+00  0.00000E+00  9.000E+00
      21    -1     0     0   512   504  0.000000000E+00  0.000000000E+00 -1.030180893E+02  1.030180893E+02  0.000000000E+00  0.00000E+00  9.000E+00
       6     2     1     2   502     0 -6.346048047E+01 -7.152835638E+01  1.117638985E+03  1.134832340E+03  1.720000000E+02  0.00000E+00  9.000E+00
      -6     2     1     2     0   504  6.917121268E+01  8.489281959E+01  6.159480967E+01  2.130008640E+02  1.720000000E+02  0.00000E+00  9.000E+00
      24     2     3     3     0     0 -2.802278155E+01 -6.723916823E+01  1.067674090E+03  1.073242723E+03  8.133632796E+01  0.00000E+00  9.000E+00
     -24     2     4     4     0     0 -2.092456891E+01  2.800519427E+01  6.567001820E+01  1.062646396E+02  7.587815131E+01  0.00000E+00  9.000E+00
     -11     1     5     5     0     0 -5.385225511E+01 -2.547385503E+01  5.333339962E+02  5.366508495E+02  0.000000000E+00  0.00000E+00  9.000E+00
      12     1     5     5     0     0  2.582947356E+01 -4.176531320E+01  5.343400936E+02  5.365918735E+02  1.705984480E-05  0.00000E+00  9.000E+00
      13     1     6     6     0     0 -4.474735544E-01 -2.236556826E+01  1.885408796E+00  2.244935728E+01  2.803636748E-07  0.00000E+00  9.000E+00
     -14     1     6     6     0     0 -2.047709535E+01  5.037076252E+01  6.378460940E+01  8.381528231E+01  1.168007728E-06  0.00000E+00  9.000E+00
       5     1     3     3   502     0 -3.543769893E+01 -4.289188154E+00  4.996489533E+01  6.158961686E+01  4.750000000E+00  0.00000E+00  9.000E+00
      -5     1     4     4     0   504  9.009578159E+01  5.688762532E+01 -4.075208528E+00  1.067362244E+02  4.750000000E+00  0.00000E+00  9.000E+00
      21     1     1     2   512   503 -5.710732205E+00 -1.336446320E+01 -1.589734365E+01  2.153942604E+01  7.907449699E-07  0.00000E+00  9.000E+00
</event>
<event>
     13  10001  1.00000E+00  2.25139E+02 -1.00000E+00  1.11672E-01
       2    -1     0     0   503     0  0.000000000E+00  0.000000000E+00  2.964385550E+02  2.964385550E+02  0.000000000E+00  0.00000E+00  9.000E+00
      21    -1     0     0   502   503  0.000000000E+00  0.000000000E+00 -1.005221520E+03  1.005221520E+03  0.000000000E+00  0.00000E+00  9.000E+00
       6     2     1     2   502     0 -2.587149356E+02  6.185394056E+01 -2.523744498E+02  4.050138155E+02  1.720000000E+02  0.00000E+00  9.000E+00
      -6     2     1     2     0   504  3.147726313E+02  1.561941660E+02 -5.309192158E+02  6.594980217E+02  1.720000000E+02  0.00000E+00  9.000E+00
      24     2     3     3     0     0 -1.024210875E+02 -1.917896619E+01 -1.573321173E+02  2.048895881E+02  7.980248291E+01  0.00000E+00  9.000E+00
     -24     2     4     4     0     0  5.876049592E+01  1.769084095E+01 -1.365663738E+02  1.693326302E+02  7.910375128E+01  0.00000E+00  9.000E+00
     -11     1     5     5     0     0 -5.581089888E+01 -4.949165859E+01 -7.713228913E+01  1.073017741E+02  2.523185073E-06  0.00000E+00  9.000E+00
      12     1     5     5     0     0 -4.661018858E+01  3.031269239E+01 -8.019982814E+01  9.758781396E+01  0.000000000E+00  0.00000E+00  9.000E+00
      13     1     6     6     0     0 -1.569647095E+01  1.862772727E+01 -4.629765266E+01  5.231485511E+01  0.000000000E+00  0.00000E+00  9.000E+00
     -14     1     6     6     0     0  7.445696688E+01 -9.368863239E-01 -9.026872113E+01  1.170177751E+02  2.132480600E-06  0.00000E+00  9.000E+00
       5     1     3     3   502     0 -1.562938481E+02  8.103290675E+01 -9.504233249E+01  2.001242274E+02  4.750000000E+00  0.00000E+00  9.000E+00
      -5     1     4     4     0   504  2.560121353E+02  1.385033251E+02 -3.943528420E+02  4.901653915E+02  4.750000000E+00  0.00000E+00  9.000E+00
       2     1     1     2   504     0 -5.605769571E+01 -2.180481066E+02  7.451070081E+01  2.371482376E+02  6.468133910E-06  0.00000E+00  9.000E+00
</event>
<event>
     13  10001  1.00000E+00  1.88492E+00 -1.00000E+00  4.01243E-01
      21    -1     0     0   511   504  0.000000000E+00  0.000000000E+00  6.753984124E+01  6.753984124E+01  0.000000000E+00  0.00000E+00  9.000E+00
      21    -1     0     0   502   503  0.000000000E+00  0.000000000E+00 -6.140488755E+02  6.140488755E+02  0.000000000E+00  0.00000E+00  9.000E+00
       6     2     1     2   502     0  3.126480602E+01  2.700238959E+01 -2.111666627E+02  2.754668339E+02  1.720000000E+02  0.00000E+00  9.000E+00
      -6     2     1     2     0   504 -3.311997816E+01 -2.733595492E+01 -3.494726399E+02  3.918664484E+02  1.720000000E+02  0.00000E+00  9.000E+00
      24     2     3     3     0     0 -2.196236891E+01 -3.781873172E+01 -6.905785418E+01  1.103838672E+02  7.418226747E+01  0.00000E+00  9.000E+00
     -24     2     4     4     0     0 -4.909968249E+01 -6.358374770E+01 -1.599021203E+02  1.981429397E+02  8.507799183E+01  0.00000E+00  9.000E+00
     -11     1     5     5     0     0  3.142983862E+00  1.549185642E+01  4.211520064E+00  1.635887723E+01  3.097148194E-07  0.00000E+00  9.000E+00
      12     1     5     5     0     0 -2.510535277E+01 -5.331058814E+01 -7.326937425E+01  9.402499002E+01  9.536743164E-07  0.00000E+00  9.000E+00
      13     1     6     6     0     0  6.818362207E+00 -4.320964384E+01 -2.426500675E+01  5.002353383E+01  1.815741803E-06  0.00000E+00  9.000E+00
     -14     1     6     6     0     0 -5.591804470E+01 -2.037410386E+01 -1.356371135E+02  1.481194059E+02  2.697398305E-06  0.00000E+00  9.000E+00
       5     1     3     3   502     0  5.322717493E+01  6.482112130E+01 -1.421088085E+02  1.650829667E+02  4.750000000E+00  0.00000E+00  9.000E+00
      -5     1     4     4     0   504  1.597970434E+01  3.624779278E+01 -1.895705196E+02  1.937235087E+02  4.750000000E+00  0.00000E+00  9.000E+00
      21     1     1     2   511   503  1.855172135E+00  3.335653299E-01  1.413026829E+01  1.425543445E+01  5.591411304E-07  0.00000E+00  9.000E+00
</event>
<event>
     13  10001  1.00000E+00  3.04672E+01 -1.00000E+00  1.56258E-01
      21    -1     0     0   512   504  0.000000000E+00  0.000000000E+00  9.991932348E+02  9.991932348E+02  0.000000000E+00  0.00000E+00  9.000E+00
      21    -1     0     0   502   503  0.000000000E+00  0.000000000E+00 -1.047664287E+02  1.047664287E+02  0.000000000E+00  0.00000E+00  9.000E+00
       6     2     1     2   502     0  1.569720741E+02 -2.295367940E+01  4.668945109E+02  5.222466733E+02  1.720000000E+02  0.00000E+00  9.000E+00
      -6     2     1     2     0   504 -1.840035570E+02  3.700898152E+01  1.360697119E+02  2.886623290E+02  1.720000000E+02  0.00000E+00  9.000E+00
      24     2     3     3     0     0  1.279063661E+02  4.423682586E+01  2.710439258E+02  3.131070224E+02  7.908389549E+01  0.00000E+00  9.000E+00
     -24     2     4     4     0     0 -1.857378350E+02 -1.261378639E+01  9.143537663E+01  2.217279343E+02  7.839131191E+01  0.00000E+00  9.000E+00
     -11     1     5     5     0     0  1.003278790E+01  3.095036806E+01  9.840028980E+01  1.036397566E+02  1.348699152E-06  0.00000E+00  9.000E+00
      12     1     5     5     0     0  1.178735782E+02  1.328645780E+01  1.726436360E+02  2.094672658E+02  2.697398305E-06  0.00000E+00  9.000E+00
      13     1     6     6     0     0 -1.773896691E+02  5.826996811E+00  9.478629273E+01  2.012100641E+02  5.223489356E-06  0.00000E+00  9.000E+00
     -14     1     6     6     0     0 -8.348165887E+00 -1.844078320E+01 -3.350916097E+00  2.051787020E+01  5.127385418E-07  0.00000E+00  9.000E+00
       5     1     3     3   502     0  2.906570802E+01 -6.719050526E+01  1.958505851E+02  2.091396509E+02  4.750000000E+00  0.00000E+00  9.000E+00
      -5     1     4     4     0   504  1.734277997E+00  4.962276791E+01  4.463433529E+01  6.693439476E+01  4.750000000E+00  0.00000E+00  9.000E+00
      21     1     1     2   512   503  2.703148286E+01 -1.405530212E+01  2.914625832E+02  2.930506611E+02  3.814697266E-06  0.00000E+00  9.000E+00
</event>
<event>
     13  10001  1.00000E+00  9.49492E+01 -1.00000E+00  1.27278E-01
      21    -1     0     0   503   504  0.000000000E+00  0.000000000E+00  2.268559790E+02  2.268559790E+02  0.000000000E+00  0.00000E+00  9.000E+00
       1    -1     0     0   502     0  0.000000000E+00  0.000000000E+00 -1.304613302E+03  1.304613302E+03  0.000000000E+00  0.00000E+00  9.000E+00
       6     2     1     2   502     0 -1.361989319E+02  1.919812988E+02  7.302283924E+01  3.005383556E+02  1.720000000E+02  0.00000E+00  9.000E+00
      -6     2     1     2     0   504  9.418787236E+01 -1.068319106E+02 -2.954662548E+02  3.703629573E+02  1.720000000E+02  0.00000E+00  9.000E+00
      24     2     3     3     0     0 -7.255979097E-01  5.221442510E+01  1.463882951E+01  9.726745681E+01  8.074521747E+01  0.00000E+00  9.000E+00
     -24     2     4     4     0     0  1.299174329E+02 -1.026385237E+02 -2.172342365E+02  2.841249310E+02  7.824996488E+01  0.00000E+00  9.000E+00
     -11     1     5     5     0     0 -3.658516958E+01  1.387336754E+01  2.096587161E+01  4.439045768E+01  3.371747881E-07  0.00000E+00  9.000E+00
      12     1     5     5     0     0  3.585957167E+01  3.834105756E+01 -6.327042102E+00  5.287699913E+01  1.905485077E-06  0.00000E+00  9.000E+00
      13     1     6     6     0     0  8.136724815E+01 -3.605575967E+01 -6.228978239E+01  1.086308606E+02  2.939421655E-06  0.00000E+00  9.000E+00
     -14     1     6     6     0     0  4.855018473E+01 -6.658276407E+01 -1.549444541E+02  1.754940705E+02  3.303624740E-06  0.00000E+00  9.000E+00
       5     1     3     3   502     0 -1.354733340E+02  1.397668737E+02  5.838400973E+01  2.032708988E+02  4.750000000E+00  0.00000E+00  9.000E+00
      -5     1     4     4     0   504 -3.572956052E+01 -4.193386830E+00 -7.823201827E+01  8.623802624E+01  4.750000000E+00  0.00000E+00  9.000E+00
       1     1     1     2   503     0  4.201105953E+01 -8.514938824E+01 -8.553139079E+02  8.605679685E+02  1.078959322E-05  0.00000E+00  9.000E+00
</event>
<event>
     13  10001  1.00000E+00  1.84262E+01 -1.00000E+00  1.73942E-01
       2    -1     0     0   503     0  0.000000000E+00  0.000000000E+00  1.480245877E+03  1.480245877E+03  0.000000000E+00  0.00000E+00  9.000E+00
      21    -1     0     0   502   503  0.000000000E+00  0.000000000E+00 -1.446925408E+02  1.446925408E+02  0.000000000E+00  0.00000E+00  9.000E+00
       6     2     1     2   502     0 -1.656368987E+01  6.711079675E+01  8.447698358E+01  2.037119918E+02  1.720000000E+02  0.00000E+00  9.000E+00
      -6     2     1     2     0   504  3.491779275E+01 -6.548205546E+01  1.819555911E+01  1.882079441E+02  1.720000000E+02  0.00000E+00  9.000E+00
      24     2     3     3     0     0  3.464040152E+01  1.854228235E+00  7.519805012E+00  9.046337797E+01  8.320865163E+01  0.00000E+00  9.000E+00
     -24     2     4     4     0     0  2.730234454E+00  2.750012232E+01 -1.257172309E+01  8.500468614E+01  7.939796934E+01  0.00000E+00  9.000E+00
     -11     1     5     5     0     0 -7.765404121E+00  2.257606062E+01 -2.388590446E+01  3.377153307E+01  0.000000000E+00  0.00000E+00  9.000E+00
      12     1     5     5     0     0  4.240580564E+01 -2.072183238E+01  3.140570948E+01  5.669184489E+01  1.261592536E-06  0.00000E+00  9.000E+00
      13     1     6     6     0     0 -2.739348698E+01 -1.254279036E+01 -1.718356900E+01  3.468428697E+01  7.152557373E-07  0.00000E+00  9.000E+00
     -14     1     6     6     0     0  3.012372144E+01  4.004291268E+01  4.611845906E+00  5.032039916E+01  8.900871589E-07  0.00000E+00  9.000E+00
       5     1     3     3   502     0 -5.120409140E+01  6.525656851E+01  7.695717857E+01  1.132486139E+02  4.750000000E+00  0.00000E+00  9.000E+00
      -5     1     4     4     0   504  3.218755829E+01 -9.298217778E+01  3.076728221E+01  1.032032579E+02  4.750000000E+00  0.00000E+00  9.000E+00
       2     1     1     2   504     0 -1.835410287E+01 -1.628741289E+00  1.232880794E+03  1.233018482E+03  1.525878906E-05  0.00000E+00  9.000E+00
</event>
<event>
     13  10001  1.00000E+00  3.44748E+01 -1.00000E+00  1.52465E-01
       2    -1     0     0   502     0  0.000000000E+00  0.000000000E+00  2.346144182E+02  2.346144182E+02  0.000000000E+00  0.00000E+00  9.000E+00
      -2    -1     0     0     0   511  0.000000000E+00  0.000000000E+00 -3.026232821E+02  3.026232821E+02  0.000000000E+00  0.00000E+00  9.000E+00
       6     2     1     2   502     0 -4.645305886E+00 -5.074307895E+01  9.688372337E+01  2.038796086E+02  1.720000000E+02  0.00000E+00  9.000E+00
      -6     2     1     2     0   512 -1.320531799E+01  8.023664232E+01 -2.813528313E+01  1.923223683E+02  1.720000000E+02  0.00000E+00  9.000E+00
      24     2     3     3     0     0  6.459927775E+00 -4.897353205E+00  1.242908221E+02  1.491176843E+02  8.198878333E+01  0.00000E+00  9.000E+00
     -24     2     4     4     0     0  1.746622574E+01  1.021883043E+02 -5.858668323E+01  1.436143677E+02  8.028180718E+01  0.00000E+00  9.000E+00
     -11     1     5     5     0     0  2.588766919E+01 -3.249044942E+01  3.737714962E+01  5.588248414E+01  1.430511475E-06  0.00000E+00  9.000E+00
      12     1     5     5     0     0 -1.942774142E+01  2.759309622E+01  8.691367246E+01  9.323520020E+01  1.907348633E-06  0.00000E+00  9.000E+00
      13     1     6     6     0     0  3.010580820E+01  3.002838263E+01 -5.599493246E+01  7.030999866E+01  1.348699152E-06  0.00000E+00  9.000E+00
     -14     1     6     6     0     0 -1.263958246E+01  7.215992168E+01 -2.591750778E+00  7.330436899E+01  1.357560393E-06  0.00000E+00  9.000E+00
       5     1     3     3   502     0 -1.110523366E+01 -4.584572575E+01 -2.740709871E+01  5.476192421E+01  4.750000000E+00  0.00000E+00  9.000E+00
      -5     1     4     4     0   512 -3.067154373E+01 -2.195166200E+01  3.045140010E+01  4.870800065E+01  4.750000000E+00  0.00000E+00  9.000E+00
      21     1     1     2   512   511  1.785062388E+01 -2.949356337E+01 -1.367573041E+02  1.410357234E+02  0.000000000E+00  0.00000E+00  9.000E+00
</event>
<event>
     13  10001  1.00000E+00  2.86212E+01 -1.00000E+00  1.58252E-01
       3    -1     0     0   502     0  0.000000000E+00  0.000000000E+00  2.960832395E+02  2.960832395E+02  0.000000000E+00  0.00000E+00  9.000E+00
      21    -1     0     0   513   512  0.000000000E+00  0.000000000E+00 -1.935943061E+02  1.935943061E+02  0.000000000E+00  0.00000E+00  9.000E+00
       6     2     1     2   502     0  6.148137877E+01 -3.026098235E+01  5.790343216E+01  1.939909649E+02  1.720000000E+02  0.00000E+00  9.000E+00
      -6     2     1     2     0   512 -8.947059780E+01  2.427942500E+01  1.100398385E+02  2.242481759E+02  1.720000000E+02  0.00000E+00  9.000E+00
      24     2     3     3     0     0 -1.540188276E+01  2.509588903E+01  5.252693553E+01  9.898102680E+01  7.855662335E+01  0.00000E+00  9.000E+00
     -24     2     4     4     0     0  2.045092945E+01  5.247598096E-01  4.697259748E+01  9.522466776E+01  8.026703276E+01  0.00000E+00  9.000E+00
     -11     1     5     5     0     0  1.428244858E+01 -2.198222531E+01  2.738717552E+01  3.791126416E+01  4.768371582E-07  0.00000E+00  9.000E+00
      12     1     5     5     0     0 -2.968433134E+01  4.707811434E+01  2.513976001E+01  6.106976265E+01  1.469710828E-06  0.00000E+00  9.000E+00
      13     1     6     6     0     0 -2.977386719E+01  1.008322218E+01  1.417758555E+01  3.448417708E+01  4.768371582E-07  0.00000E+00  9.000E+00
     -14     1     6     6     0     0  5.022479664E+01 -9.558462366E+00  3.279501192E+01  6.074049067E+01  4.768371582E-07  0.00000E+00  9.000E+00
       5     1     3     3   502     0  7.688326153E+01 -5.535687137E+01  5.376496629E+00  9.500993805E+01  4.750000000E+00  0.00000E+00  9.000E+00
      -5     1     4     4     0   512 -1.099215272E+02  2.375466519E+01  6.306724102E+01  1.290235082E+02  4.750000000E+00  0.00000E+00  9.000E+00
       3     1     1     2   513     0  2.798921903E+01  5.981557349E+00 -6.545433734E+01  7.143840484E+01  1.348699152E-06  0.00000E+00  9.000E+00
</event>
<event>
     13  10001  1.00000E+00  1.45585E+01 -1.00000E+00  1.83739E-01
      21    -1     0     0   502   503  0.000000000E+00  0.000000000E+00  3.327741462E+02  3.327741462E+02  0.000000000E+00  0.00000E+00  9.000E+00
      21    -1     0     0   511   504  0.000000000E+00  0.000000000E+00 -2.347448824E+02  2.347448824E+02  0.000000000E+00  0.00000E+00  9.000E+00
       6     2     1     2   502     0 -3.299222891E+01 -9.178004143E+00 -5.982516614E+00  1.754779571E+02  1.720000000E+02  0.00000E+00  9.000E+00
      -6     2     1     2     0   504  3.591645497E+01 -5.083822230E+00  2.163519123E+02  2.787615234E+02  1.720000000E+02  0.00000E+00  9.000E+00
      24     2     3     3     0     0 -5.029186965E+01 -6.623515400E+01  4.846642015E+00  1.146944964E+02  7.883507968E+01  0.00000E+00  9.000E+00
     -24     2     4     4     0     0 -3.510991952E+01 -2.228606049E+01  1.693802069E+02  1.917582678E+02  7.970071423E+01  0.00000E+00  9.000E+00
     -11     1     5     5     0     0  1.268058967E+01 -2.390414240E+01  2.429320147E+01  3.636433714E+01  8.920806376E-07  0.00000E+00  9.000E+00
      12     1     5     5     0     0 -6.297245931E+01 -4.233101160E+01 -1.944655945E+01  7.833015926E+01  2.023048729E-06  0.00000E+00  9.000E+00
      13     1     6     6     0     0  2.453166540E+00 -4.405135006E+01  6.349230581E+01  7.731631370E+01  1.784161275E-06  0.00000E+00  9.000E+00
     -14     1     6     6     0     0 -3.756308606E+01  2.176528957E+01  1.058879011E+02  1.144419541E+02  1.348699152E-06  0.00000E+00  9.000E+00
       5     1     3     3   502     0  1.729964074E+01  5.705714986E+01 -1.082915863E+01  6.078346071E+01  4.750000000E+00  0.00000E+00  9.000E+00
      -5     1     4     4     0   504  7.102637449E+01  1.720223826E+01  4.697170533E+01  8.700325555E+01  4.750000000E+00  0.00000E+00  9.000E+00
      21     1     1     2   511   503 -2.924226060E+00  1.426182637E+01 -1.123401318E+02  1.132795481E+02  1.907348633E-06  0.00000E+00  9.000E+00
</event>
<event>
     13  10001  1.00000E+00  1.64861E+01 -1.00000E+00  1.78430E-01
       2    -1     0     0   502     0  0.000000000E+00  0.000000000E+00  1.312924886E+03  1.312924886E+03  0.000000000E+00  0.00000E+00  9.000E+00
      21    -1     0     0   513   512  0.000000000E+00  0.000000000E+00 -4.068921523E+01  4.068921523E+01  0.000000000E+00  0.00000E+00  9.000E+00
       6     2     1     2   502     0  4.393603244E+01 -9.365720603E+00  9.895110324E+02  1.005352761E+03  1.720000000E+02  0.00000E+00  9.000E+00
      -6     2     1     2     0   512 -6.022799148E+01  6.843033741E+00  2.751949713E+02  3.301371084E+02  1.720000000E+02  0.00000E+00  9.000E+00
      24     2     3     3     0     0  3.363238783E+00  3.362347548E+01  8.403503151E+02  8.448357697E+02  8.010603040E+01  0.00000E+00  9.000E+00
     -24     2     4     4     0     0 -1.298958218E+00 -5.431553360E+01  1.367076833E+02  1.676123633E+02  8.033087305E+01  0.00000E+00  9.000E+00
     -11     1     5     5     0     0 -7.656170547E+00  5.100911607E+01  3.244082411E+02  3.284832626E+02  7.629394531E-06  0.00000E+00  9.000E+00
      12     1     5     5     0     0  1.101940933E+01 -1.738564059E+01  5.159420740E+02  5.163525071E+02  1.078959322E-05  0.00000E+00  9.000E+00
      13     1     6     6     0     0  1.671261963E+00 -1.719206827E+01 -7.384338333E+00  1.878533419E+01  3.371747881E-07  0.00000E+00  9.000E+00
     -14     1     6     6     0     0 -2.970220180E+00 -3.712346533E+01  1.440920217E+02  1.488270291E+02  0.000000000E+00  0.00000E+00  9.000E+00
       5     1     3     3   502     0  4.057279366E+01 -4.298919609E+01  1.491607173E+02  1.605169918E+02  4.750000000E+00  0.00000E+00  9.000E+00
      -5     1     4     4     0   512 -5.892903326E+01  6.115856734E+01  1.384872880E+02  1.625247451E+02  4.750000000E+00  0.00000E+00  9.000E+00
       2     1     1     2   513     0  1.629195903E+01  2.522686862E+00  7.529666955E+00  1.812423136E+01  5.654593098E-07  0.00000E+00  9.000E+00
</event>
<event>
     13  10001  1.00000E+00  4.99331E+01 -1.00000E+00  1.42148E-01
      21    -1     0     0   511   504  0.000000000E+00  0.000000000E+00  2.084693256E+02  2.084693256E+02  0.000000000E+00  0.00000E+00  9.000E+00
      21    -1     0     0   502   503  0.000000000E+00  0.000000000E+00 -5.140475781E+02  5.140475781E+02  0.000000000E+00  0.00000E+00  9.000E+00
       6     2     1     2   502     0 -6.028719670E+01 -2.270906118E+01 -7.293097457E+01  1.976187607E+02  1.720000000E+02  0.00000E+00  9.000E+00
      -6     2     1     2     0   504  4.784690767E+01 -2.564956512E+01 -3.520012581E+02  3.955200531E+02  1.720000000E+02  0.00000E+00  9.000E+00
      24     2     3     3     0     0 -8.511558317E+01 -3.954009971E+01 -6.973626881E+00  1.250056294E+02  8.227814972E+01  0.00000E+00  9.000E+00
     -24     2     4     4     0     0  3.245205000E+01  2.971508411E+01 -9.420469941E+01  1.313536772E+02  8.026918058E+01  0.00000E+00  9.000E+00
     -11     1     5     5     0     0 -3.623405668E+00 -3.959888871E+01  1.160366154E+01  4.142277171E+01  1.316709640E-06  0.00000E+00  9.000E+00
      12     1     5     5     0     0 -8.149217750E+01  5.878900179E-02 -1.857728842E+01  8.358285766E+01  6.743495762E-07  0.00000E+00  9.000E+00
      13     1     6     6     0     0  4.240339568E+01 -8.080497395E+00 -2.019267675E+01  4.765591881E+01  6.307962682E-07  0.00000E+00  9.000E+00
     -14     1     6     6     0     0 -9.951345672E+00  3.779558151E+01 -7.401202266E+01  8.369775839E+01  1.907348633E-06  0.00000E+00  9.000E+00
       5     1     3     3   502     0  2.482838647E+01  1.683103852E+01 -6.595734769E+01  7.261313137E+01  4.750000000E+00  0.00000E+00  9.000E+00
      -5     1     4     4     0   504  1.539485766E+01 -5.536464923E+01 -2.577965587E+02  2.641663759E+02  4.750000000E+00  0.00000E+00  9.000E+00
      21     1     1     2   511   503  1.244028903E+01  4.835862630E+01  1.193539802E+02  1.293780898E+02  2.336015456E-06  0.00000E+00  9.000E+00
</event>
<event>
     13  10001  1.00000E+00  8.52278E+00 -1.00000E+00  2.10937E-01
      21    -1     0     0   502   503  0.000000000E+00  0.000000000E+00  4.739958213E+01  4.739958213E+01  0.000000000E+00  0.00000E+00  9.000E+00
      21    -1     0     0   503   512  0.000000000E+00  0.000000000E+00 -1.309058331E+03  1.309058331E+03  0.000000000E+00  0.00000E+00  9.000E+00
       6     2     1     2   502     0  7.037807703E+01 -1.233294540E+02 -3.435029861E+02  4.095626075E+02  1.720000000E+02  0.00000E+00  9.000E+00
      -6     2     1     2     0   504 -6.446363489E+01  1.171929095E+02 -8.228243295E+02  8.511836556E+02  1.720000000E+02  0.00000E+00  9.000E+00
      24     2     3     3     0     0  9.495446871E+01 -3.433492520E+01 -1.734734720E+02  2.160254706E+02  7.986689069E+01  0.00000E+00  9.000E+00
     -24     2     4     4     0     0 -2.610525775E+00  4.050038327E+01 -6.117836439E+02  6.182281143E+02  7.924442290E+01  0.00000E+00  9.000E+00
     -11     1     5     5     0     0 -1.232980085E+01 -7.186540197E+00 -4.098309421E+01  4.339682431E+01  1.581489940E-06  0.00000E+00  9.000E+00
      12     1     5     5     0     0  1.072842696E+02 -2.714838500E+01 -1.324903778E+02  1.726286463E+02  4.264961200E-06  0.00000E+00  9.000E+00
      13     1     6     6     0     0 -2.474215833E+01 -9.551907154E+00 -9.757028943E+01  1.011107052E+02  1.907348633E-06  0.00000E+00  9.000E+00
     -14     1     6     6     0     0  2.213163256E+01  5.005229042E+01 -5.142133544E+02  5.171174091E+02  7.629394531E-06  0.00000E+00  9.000E+00
       5     1     3     3   502     0 -2.457639168E+01 -8.899452878E+01 -1.700295141E+02  1.935371369E+02  4.750000000E+00  0.00000E+00  9.000E+00
      -5     1     4     4     0   504 -6.185310912E+01  7.669252627E+01 -2.110406856E+02  2.329555412E+02  4.750000000E+00  0.00000E+00  9.000E+00
      21     1     1     2   504   512 -5.914442139E+00  6.136544445E+00 -9.533143350E+01  9.571165037E+01  0.000000000E+00  0.00000E+00  9.000E+00
</event>
<event>
     13  10001  1.00000E+00  3.65829E+01 -1.00000E+00  1.50709E-01
      21    -1     0     0   503   504  0.000000000E+00  0.000000000E+00  5.149561734E+02  5.149561734E+02  0.000000000E+00  0.00000E+00  9.000E+00
      21    -1     0     0   502   511  0.000000000E+00  0.000000000E+00 -1.537297465E+02  1.537297465E+02  0.000000000E+00  0.00000E+00  9.000E+00
       6     2     1     2   502     0  1.082737875E+02 -3.240969088E+01  7.452372771E+01  2.188866993E+02  1.720000000E+02  0.00000E+00  9.000E+00
      -6     2     1     2     0   504 -9.883010814E+01  6.775262869E+01  3.313428118E+02  3.920840062E+02  1.720000000E+02  0.00000E+00  9.000E+00
      24     2     3     3     0     0  1.367024647E+02 -1.292958515E+01  2.928814681E+01  1.618210837E+02  8.045824736E+01  0.00000E+00  9.000E+00
     -24     2     4     4     0     0  5.650201732E+00  2.342485308E+01  2.034646154E+02  2.210387418E+02  8.294351781E+01  0.00000E+00  9.000E+00
     -11     1     5     5     0     0  1.394102255E+02 -1.052735943E+00  4.059132700E+01  1.452032199E+02  3.126830351E-06  0.00000E+00  9.000E+00
      12     1     5     5     0     0 -2.707760844E+00 -1.187684921E+01 -1.130318020E+01  1.661786384E+01  9.973764736E-07  0.00000E+00  9.000E+00
      13     1     6     6     0     0 -2.689955182E+01 -1.578899311E+01  1.127955116E+02  1.170286530E+02  0.000000000E+00  0.00000E+00  9.000E+00
     -14     1     6     6     0     0  3.254975355E+01  3.921384619E+01  9.066910382E+01  1.040100888E+02  1.348699152E-06  0.00000E+00  9.000E+00
       5     1     3     3   502     0 -2.842867713E+01 -1.948010573E+01  4.523558090E+01  5.706561558E+01  4.750000000E+00  0.00000E+00  9.000E+00
      -5     1     4     4     0   504 -1.044803099E+02  4.432777561E+01  1.278781964E+02  1.710452643E+02  4.750000000E+00  0.00000E+00  9.000E+00
      21     1     1     2   503   511 -9.443679401E+00 -3.534293781E+01 -4.464011259E+01  5.771521451E+01  1.430511475E-06  0.00000E+00  9.000E+00
</event>
<event>
     13  10001  1.00000E+00  4.21567E+00 -1.00000E+00  2.69410E-01
      -1    -1     0     0     0   512  0.000000000E+00  0.000000000E+00  2.029764856E+02  2.029764856E+02  0.000000000E+00  0.00000E+00  9.000E+00
       1    -1     0     0   513     0  0.000000000E+00  0.000000000E+00 -1.900561743E+02  1.900561743E+02  0.000000000E+00  0.00000E+00  9.000E+00
       6     2     1     2   502     0  1.358470310E+00  6.376873896E+01  6.874416930E+01  1.959031861E+02  1.720000000E+02  0.00000E+00  9.000E+00
      -6     2     1     2     0   512  4.697217386E-01 -6.756736572E+01 -5.522569264E+01  1.928715808E+02  1.720000000E+02  0.00000E+00  9.000E+00
      24     2     3     3     0     0 -3.148141791E+01 -2.467950517E+01  5.344669606E+01  1.002050914E+02  7.472853115E+01  0.00000E+00  9.000E+00
     -24     2     4     4     0     0 -5.046640355E+01 -5.613453952E+01 -7.895243385E+01  1.353327320E+02  7.989691558E+01  0.00000E+00  9.000E+00
     -11     1     5     5     0     0 -3.432693960E+01  3.988070753E+00 -5.121417699E+00  3.493526026E+01  1.054513813E-06  0.00000E+00  9.000E+00
      12     1     5     5     0     0  2.845521690E+00 -2.866757592E+01  5.856811376E+01  6.526983111E+01  1.907348633E-06  0.00000E+00  9.000E+00
      13     1     6     6     0     0  7.577534071E+00  1.307955153E+01  3.653467260E-01  1.512042225E+01  5.738640124E-07  0.00000E+00  9.000E+00
     -14     1     6     6     0     0 -5.804393762E+01 -6.921409105E+01 -7.931778058E+01  1.202123097E+02  1.651812370E-06  0.00000E+00  9.000E+00
       5     1     3     3   502     0  3.283988822E+01  8.844824413E+01  1.529747324E+01  9.569809473E+01  4.750000000E+00  0.00000E+00  9.000E+00
      -5     1     4     4     0   512  5.093612529E+01 -1.143282620E+01  2.372674121E+01  5.753884881E+01  4.750000000E+00  0.00000E+00  9.000E+00
      21     1     1     2   513   502 -1.828192048E+00  3.798626766E+00 -5.981653755E-01  4.257893058E+00  2.686345037E-08  0.00000E+00  9.000E+00
</event>
<event>
     13  10001  1.00000E+00  2.34427E+01 -1.00000E+00  1.64986E-01
      -2    -1     0     0     0   511  0.000000000E+00  0.000000000E+00  4.993818990E+01  4.993818990E+01  0.000000000E+00  0.00000E+00  9.000E+00
       2    -1     0     0   502     0  0.000000000E+00  0.000000000E+00 -1.032879208E+03  1.032879208E+03  0.000000000E+00  0.00000E+00  9.000E+00
       6     2     1     2   502     0  4.094499477E+01 -1.212498254E+02 -4.553615652E+02  5.033052432E+02  1.720000000E+02  0.00000E+00  9.000E+00
      -6     2     1     2     0   512 -2.789359685E+01  1.017762142E+02 -5.145218503E+02  5.526781930E+02  1.720000000E+02  0.00000E+00  9.000E+00
      24     2     3     3     0     0  4.874094748E+01 -1.388202483E+01 -2.968838716E+02  3.116640071E+02  8.016251974E+01  0.00000E+00  9.000E+00
     -24     2     4     4     0     0 -5.368363792E+01  6.568697743E-01 -2.818356801E+02  2.976180739E+02  7.913787250E+01  0.00000E+00  9.000E+00
     -11     1     5     5     0     0 -3.587252358E+00  2.698580011E+01 -6.522900699E+01  7.068185864E+01  2.132480600E-06  0.00000E+00  9.000E+00
      12     1     5     5     0     0  5.232819983E+01 -4.086782494E+01 -2.316548646E+02  2.409821485E+02  2.697398305E-06  0.00000E+00  9.000E+00
      13     1     6     6     0     0  2.024779581E+01  5.225820177E+00 -7.747093454E+01  8.024355507E+01  0.000000000E+00  0.00000E+00  9.000E+00
     -14     1     6     6     0     0 -7.393143373E+01 -4.568950403E+00 -2.043647456E+02  2.173745188E+02  0.000000000E+00  0.00000E+00  9.000E+00
       5     1     3     3   502     0 -7.795952711E+00 -1.073678006E+02 -1.584776937E+02  1.916412361E+02  4.750000000E+00  0.00000E+00  9.000E+00
      -5     1     4     4     0   512  2.579004107E+01  1.011193444E+02 -2.326861702E+02  2.550601191E+02  4.750000000E+00  0.00000E+00  9.000E+00
      21     1     1     2   512   511 -1.305139792E+01  1.947361120E+01 -1.305760266E+01  2.683396184E+01  4.460403188E-07  0.00000E+00  9.000E+00
</event>
<event>
     13  10001  1.00000E+00  5.50501E+01 -1.00000E+00  1.39665E-01
      21    -1     0     0   503   504  0.000000000E+00  0.000000000E+00  2.870551865E+02  2.870551865E+02  0.000000000E+00  0.00000E+00  9.000E+00
      21    -1     0     0   502   513  0.000000000E+00  0.000000000E+00 -2.359565102E+02  2.359565102E+02  0.000000000E+00  0.00000E+00  9.000E+00
       6     2     1     2   502     0 -4.281301618E+01 -1.479963112E+01  1.826069883E+02  2.549142907E+02  1.720000000E+02  0.00000E+00  9.000E+00
      -6     2     1     2     0   504  1.310135054E+01 -3.154398844E+01 -8.014014290E+01  1.928032964E+02  1.720000000E+02  0.00000E+00  9.000E+00
      24     2     3     3     0     0 -5.437720819E+01 -2.908517417E+01  3.675592209E+01  1.078330095E+02  8.046199102E+01  0.00000E+00  9.000E+00
     -24     2     4     4     0     0  5.752467734E+01 -2.562742951E+01 -9.338851665E-01  1.016735460E+02  7.981719224E+01  0.00000E+00  9.000E+00
     -11     1     5     5     0     0 -3.849122096E+01 -4.453017791E+01  5.390592121E+01  7.981452986E+01  1.784161275E-06  0.00000E+00  9.000E+00
      12     1     5     5     0     0 -1.588598722E+01  1.544500374E+01 -1.714999912E+01  2.801847962E+01  8.920806376E-07  0.00000E+00  9.000E+00
      13     1     6     6     0     0  6.529566598E+00 -4.594678323E+01 -4.726235331E+00  4.664846653E+01  2.230201594E-07  0.00000E+00  9.000E+00
     -14     1     6     6     0     0  5.099511075E+01  2.031935372E+01  3.792350165E+00  5.502507951E+01  1.703692189E-06  0.00000E+00  9.000E+00
       5     1     3     3   502     0  1.156419200E+01  1.428554305E+01  1.458510662E+02  1.470812812E+02  4.750000000E+00  0.00000E+00  9.000E+00
      -5     1     4     4     0   504 -4.442332680E+01 -5.916558929E+00 -7.920625773E+01  9.112975034E+01  4.750000000E+00  0.00000E+00  9.000E+00
      21     1     1     2   503   513  2.971166565E+01  4.634361956E+01 -5.136816913E+01  7.529410966E+01  9.536743164E-07  0.00000E+00  9.000E+00
</event>
<event>
     13  10001  1.00000E+00  4.59316E+01 -1.00000E+00  1.44347E-01
       2    -1     0     0   502     0  0.000000000E+00  0.000000000E+00  3.634415516E+02  3.634415516E+02  0.000000000E+00  0.00000E+00  9.000E+00
      -2    -1     0     0     0   511  0.000000000E+00  0.000000000E+00 -1.666881561E+02  1.666881561E+02  0.000000000E+00  0.00000E+00  9.000E+00
       6     2     1     2   502     0  1.254415711E+02  3.007782281E+01  1.333437089E+02  2.529917151E+02  1.720000000E+02  0.00000E+00  9.000E+00
      -6     2     1     2     0   512 -1.369454908E+02  1.438979717E+01  6.896723152E+01  2.308714204E+02  1.720000000E+02  0.00000E+00  9.000E+00
      24     2     3     3     0     0  9.958111558E+01  8.246061682E+01  7.212744792E+01  1.682408249E+02  7.991529595E+01  0.00000E+00  9.000E+00
     -24     2     4     4     0     0 -1.563798402E+02  2.339184320E+01  1.970332241E+01  1.769434498E+02  7.693458767E+01  0.00000E+00  9.000E+00
     -11     1     5     5     0     0  1.128383594E+02  6.561820130E+01  6.076701907E+01  1.439822014E+02  3.814697266E-06  0.00000E+00  9.000E+00
      12     1     5     5     0     0 -1.325724384E+01  1.684241552E+01  1.136042886E+01  2.425862359E+01  6.529361695E-07  0.00000E+00  9.000E+00
      13     1     6     6     0     0 -7.012638064E+01  1.331241859E+01  4.752768827E+01  8.575436376E+01  9.536743164E-07  0.00000E+00  9.000E+00
     -14     1     6     6     0     0 -8.625345954E+01  1.007942461E+01 -2.782436587E+01  9.118908607E+01  1.469710828E-06  0.00000E+00  9.000E+00
       5     1     3     3   502     0  2.586045554E+01 -5.238279401E+01  6.121626099E+01  8.475089013E+01  4.750000000E+00  0.00000E+00  9.000E+00
      -5     1     4     4     0   512  1.943434934E+01 -9.002046021E+00  4.926390912E+01  5.392797055E+01  4.750000000E+00  0.00000E+00  9.000E+00
      21     1     1     2   512   511  1.150391972E+01 -4.446761998E+01 -5.557544941E+00  4.626657218E+01  3.625608999E-07  0.00000E+00  9.000E+00
</event>
<event>
     13  10001  1.00000E+00  9.32609E+01 -1.00000E+00  1.27650E-01
      21    -1     0     0   513   503  0.000000000E+00  0.000000000E+00  4.687378770E+02  4.687378770E+02  0.000000000E+00  0.00000E+00  9.000E+00
      21    -1     0     0   503   504  0.000000000E+00  0.000000000E+00 -1.835658149E+02  1.835658149E+02  0.000000000E+00  0.00000E+00  9.000E+00
       6     2     1     2   502     0  4.113020342E+01 -2.002791635E+02  9.666616326E+01  2.841333913E+02  1.720000000E+02  0.00000E+00  9.000E+00
      -6     2     1     2     0   504  2.569697864E+01  1.352274978E+02  1.098367640E+02  2.461603656E+02  1.720000000E+02  0.00000E+00  9.000E+00
      24     2     3     3     0     0  5.214547643E+01 -2.198361116E+02  1.008349329E+02  2.608149094E+02  8.252070421E+01  0.00000E+00  9.000E+00
     -24     2     4     4     0     0  2.475291651E+01  4.385418935E+01 -2.662519144E+00  1.011478697E+02  8.768070339E+01  0.00000E+00  9.000E+00
     -11     1     5     5     0     0  1.760396536E+01 -1.004226557E+01  3.097026804E+01  3.701221686E+01  1.719260824E-06  0.00000E+00  9.000E+00
      12     1     5     5     0     0  3.454151107E+01 -2.097938460E+02  6.986466487E+01  2.238026926E+02  5.135693366E-06  0.00000E+00  9.000E+00
      13     1     6     6     0     0  1.345755204E+01  5.520660034E+01 -3.381256310E+01  6.612234003E+01  1.507891493E-06  0.00000E+00  9.000E+00
     -14     1     6     6     0     0  1.129536447E+01 -1.135241099E+01  3.115004395E+01  3.502552972E+01  4.768371582E-07  0.00000E+00  9.000E+00
       5     1     3     3   502     0 -1.101527301E+01  1.955694809E+01 -4.168769653E+00  2.331848191E+01  4.750000000E+00  0.00000E+00  9.000E+00
      -5     1     4     4     0   504  9.440621345E-01  9.137330840E+01  1.124992831E+02  1.450124958E+02  4.750000000E+00  0.00000E+00  9.000E+00
      21     1     1     2   513   502 -6.682718206E+01  6.505166572E+01  7.866913480E+01  1.220099350E+02  1.651812370E-06  0.00000E+00  9.000E+00
</event>
<event>
     13  10001  1.00000E+00  2.07129E+01 -1.00000E+00  1.69469E-01
      21    -1     0     0   503   504  0.000000000E+00  0.000000000E+00  9.738492796E+02  9.738492796E+02  0.000000000E+00  0.00000E+00  9.000E+00
      21    -1     0     0   502   511  0.000000000E+00  0.000000000E+00 -5.194423730E+01  5.194423730E+01  0.000000000E+00  0.00000E+00  9.000E+00
       6     2     1     2   502     0 -9.992372566E-01  1.614641355E+01  3.583483094E+02  3.978180689E+02  1.720000000E+02  0.00000E+00  9.000E+00
      -6     2     1     2     0   504 -1.490989392E+01 -2.941006573E+01  5.771925828E+02  6.031770342E+02  1.720000000E+02  0.00000E+00  9.000E+00
      24     2     3     3     0     0  3.958357952E+01 -3.276448828E+01  1.386293811E+02  1.690426086E+02  8.195685904E+01  0.00000E+00  9.000E+00
     -24     2     4     4     0     0 -1.410955123E+01 -8.786554983E+00  5.759012371E+02  5.819591215E+02  8.208472025E+01  0.00000E+00  9.000E+00
     -11     1     5     5     0     0  3.011277344E+01  1.363447378E+01  1.072634267E+02  1.122413503E+02  2.697398305E-06  0.00000E+00  9.000E+00
      12     1     5     5     0     0  9.470806076E+00 -4.639896206E+01  3.136595439E+01  5.680125829E+01  1.261592536E-06  0.00000E+00  9.000E+00
      13     1     6     6     0     0 -7.791196285E+00  1.639218736E+01  2.753344231E+01  3.297721928E+01  5.840038640E-07  0.00000E+00  9.000E+00
     -14     1     6     6     0     0 -6.318354945E+00 -2.517874235E+01  5.483677948E+02  5.489819023E+02  7.629394531E-06  0.00000E+00  9.000E+00
       5     1     3     3   502     0 -4.058281678E+01  4.891090183E+01  2.197189282E+02  2.287754603E+02  4.750000000E+00  0.00000E+00  9.000E+00
      -5     1     4     4     0   504 -8.003426915E-01 -2.062351074E+01  1.291345766E+00  2.121791266E+01  4.750000000E+00  0.00000E+00  9.000E+00
      21     1     1     2   503   511  1.590913118E+01  1.326365217E+01 -1.363584988E+01  2.479841378E+01  9.973764736E-07  0.00000E+00  9.000E+00
</event>
<event>
     13  10001  1.00000E+00  5.06022E+00 -1.00000E+00  2.47016E-01
      21    -1     0     0   503   512  0.000000000E+00  0.000000000E+00  3.365239318E+02  3.365239318E+02  0.000000000E+00  0.00000E+00  9.000E+00
      21    -1     0     0   502   503  0.000000000E+00  0.000000000E+00 -6.102999040E+02  6.102999040E+02  0.000000000E+00  0.00000E+00  9.000E+00
       6     2     1     2   502     0 -8.092777723E+01  1.248464688E+02  2.449442586E+02  3.342418821E+02  1.720000000E+02  0.00000E+00  9.000E+00
      -6     2     1     2     0   504  8.598135377E+01 -1.251057632E+02 -5.421093671E+02  5.886516891E+02  1.720000000E+02  0.00000E+00  9.000E+00
      24     2     3     3     0     0 -1.318694074E+01  1.347219974E+02  1.864127105E+02  2.440484698E+02  8.053598552E+01  0.00000E+00  9.000E+00
     -24     2     4     4     0     0  7.307763258E+01 -9.485311692E+00 -3.150888169E+02  3.335135157E+02  8.074646171E+01  0.00000E+00  9.000E+00
     -11     1     5     5     0     0  1.194896038E+01  2.205403902E+01  9.066314278E+01  9.406893085E+01  1.348699152E-06  0.00000E+00  9.000E+00
      12     1     5     5     0     0 -2.513590112E+01  1.126679584E+02  9.574956771E+01  1.499795389E+02  3.015782986E-06  0.00000E+00  9.000E+00
      13     1     6     6     0     0  3.516037760E+01  1.545325824E+01 -4.295365788E+01  5.762006654E+01  1.066240300E-06  0.00000E+00  9.000E+00
     -14     1     6     6     0     0  3.791725498E+01 -2.493856993E+01 -2.721351590E+02  2.758934491E+02  5.394796609E-06  0.00000E+00  9.000E+00
       5     1     3     3   502     0 -6.774083650E+01 -9.875528660E+00  5.853154815E+01  9.019341231E+01  4.750000000E+00  0.00000E+00  9.000E+00
      -5     1     4     4     0   504  1.290372119E+01 -1.156204515E+02 -2.270205501E+02  2.551381734E+02  4.750000000E+00  0.00000E+00  9.000E+00
      21     1     1     2   504   512 -5.053576537E+00  2.592944176E-01  2.338913625E+01  2.393026460E+01  0.000000000E+00  0.00000E+00  9.000E+00
</event>
<event>
     13  10001  1.00000E+00  9.54748E+00 -1.00000E+00  2.04489E-01
      21    -1     0     0   503   511  0.000000000E+00  0.000000000E+00  3.834305052E+02  3.834305052E+02  0.000000000E+00  0.00000E+00  9.000E+00
      21    -1     0     0   502   503  0.000000000E+00  0.000000000E+00 -1.486720311E+02  1.486720311E+02  0.000000000E+00  0.00000E+00  9.000E+00
       6     2     1     2   502     0  1.552321261E+00  1.023940274E+01 -6.030284674E+01  1.825587259E+02  1.720000000E+02  0.00000E+00  9.000E+00
      -6     2     1     2     0   504  4.138915422E+00 -2.573625411E+00  2.500676345E+02  3.035483092E+02  1.720000000E+02  0.00000E+00  9.000E+00
      24     2     3     3     0     0 -2.172450199E+01  6.010745354E+01 -4.793366486E+00  1.042484591E+02  8.221864079E+01  0.00000E+00  9.000E+00
     -24     2     4     4     0     0 -1.022704267E+00 -6.646576647E+01  1.250829752E+02  1.630044528E+02  8.065951217E+01  0.00000E+00  9.000E+00
     -11     1     5     5     0     0 -2.409338818E+01 -1.446239622E+01  6.361166131E+00  2.881174575E+01  6.899736466E-07  0.00000E+00  9.000E+00
      12     1     5     5     0     0  2.368886183E+00  7.456984977E+01 -1.115453262E+01  7.543671330E+01  1.420542632E-06  0.00000E+00  9.000E+00
      13     1     6     6     0     0 -9.360585846E+00 -5.099001676E+01  1.337204280E+02  1.434181134E+02  2.697398305E-06  0.00000E+00  9.000E+00
     -14     1     6     6     0     0  8.337881579E+00 -1.547574970E+01 -8.637452845E+00  1.958633937E+01  9.310543151E-07  0.00000E+00  9.000E+00
       5     1     3     3   502     0  2.327682326E+01 -4.986805081E+01 -5.550948026E+01  7.831026683E+01  4.750000000E+00  0.00000E+00  9.000E+00
      -5     1     4     4     0   504  5.161619689E+00  6.389214106E+01  1.249846593E+02  1.405438564E+02  4.750000000E+00  0.00000E+00  9.000E+00
      21     1     1     2   504   511 -5.691236684E+00 -7.665777325E+00  4.499368640E+01  4.599550123E+01  4.768371582E-07  0.00000E+00  9.000E+00
</event>
<event>
     13  10001  1.00000E+00  9.70176E+01 -1.00000E+00  1.26834E-01
      21    -1     0     0   503   504  0.000000000E+00  0.000000000E+00  4.081392216E+02  4.081392216E+02  0.000000000E+00  0.00000E+00  9.000E+00
      21    -1     0     0   512   503  0.000000000E+00  0.000000000E+00 -6.233976148E+02  6.233976148E+02  0.000000000E+00  0.00000E+00  9.000E+00
       6     2     1     2   502     0  4.841176664E+01 -3.908304570E+01  3.495305102E+02  3.944955782E+02  1.720000000E+02  0.00000E+00  9.000E+00
      -6     2     1     2     0   504 -1.609691868E+01 -5.239465376E+01 -2.551110404E+02  3.125219248E+02  1.720000000E+02  0.00000E+00  9.000E+00
      24     2     3     3     0     0  2.563270999E+00 -8.118226770E+01  2.684514703E+02  2.921686401E+02  8.184858815E+01  0.00000E+00  9.000E+00
     -24     2     4     4     0     0 -4.532893834E+01 -6.604581620E+01 -9.292532595E+01  1.470902661E+02  8.113980342E+01  0.00000E+00  9.000E+00
     -11     1     5     5     0     0  2.424630669E+01 -7.922434651E+01  2.508314744E+02  2.641605743E+02  2.697398305E-06  0.00000E+00  9.000E+00
      12     1     5     5     0     0 -2.168303569E+01 -1.957921187E+00  1.761999591E+01  2.800806576E+01  2.384185791E-07  0.00000E+00  9.000E+00
      13     1     6     6     0     0  5.336455295E+00 -4.720961083E+01 -1.071811791E+01  4.870424172E+01  5.840038640E-07  0.00000E+00  9.000E+00
     -14     1     6     6     0     0 -5.066539363E+01 -1.883620537E+01 -8.220720805E+01  9.838602441E+01  0.000000000E+00  0.00000E+00  9.000E+00
       5     1     3     3   502     0  4.584849565E+01  4.209922200E+01  8.107903993E+01  1.023269381E+02  4.750000000E+00  0.00000E+00  9.000E+00
      -5     1     4     4     0   504  2.923201966E+01  1.365116245E+01 -1.621857145E+02  1.654316587E+02  4.750000000E+00  0.00000E+00  9.000E+00
      21     1     1     2   512   502 -3.231484797E+01  9.147769946E+01 -3.096778630E+02  3.245193334E+02  6.607249480E-06  0.00000E+00  9.000E+00
</event>
<event>
     13  10001  1.00000E+00  2.03813E+01 -1.00000E+00  1.70072E-01
      21    -1     0     0   502   511  0.000000000E+00  0.000000000E+00  2.704101457E+02  2.704101457E+02  0.000000000E+00  0.00000E+00  9.000E+00
      21    -1     0     0   503   504  0.000000000E+00  0.000000000E+00 -1.518355621E+03  1.518355621E+03  0.000000000E+00  0.00000E+00  9.000E+00
       6     2     1     2   502     0  1.056268751E+02 -9.836051996E+01 -4.852437640E+01  2.297181833E+02  1.720000000E+02  0.00000E+00  9.000E+00
      -6     2     1     2     0   504 -8.548211370E+01  1.014567173E+02 -1.370071493E+03  1.387184398E+03  1.720000000E+02  0.00000E+00  9.000E+00
      24     2     3     3     0     0  8.402366453E+00 -9.863702671E+01 -2.661010571E+01  1.299410351E+02  7.985431788E+01  0.00000E+00  9.000E+00
     -24     2     4     4     0     0  1.101022302E+01  8.585167834E+01 -7.878473585E+02  7.967931769E+02  8.175677814E+01  0.00000E+00  9.000E+00
     -11     1     5     5     0     0  4.153120843E+00  8.618097221E+00  1.246298718E+01  1.571133546E+01  4.129530925E-07  0.00000E+00  9.000E+00
      12     1     5     5     0     0  4.249245610E+00 -1.072551239E+02 -3.907309289E+01  1.142296997E+02  3.438521648E-06  0.00000E+00  9.000E+00
      13     1     6     6     0     0 -5.760950742E+00  2.619325583E+01 -5.607862244E+02  5.614271678E+02  1.078959322E-05  0.00000E+00  9.000E+00
     -14     1     6     6     0     0  1.677117376E+01  5.965842251E+01 -2.270611341E+02  2.353660091E+02  6.607249480E-06  0.00000E+00  9.000E+00
       5     1     3     3   502     0  9.722450864E+01  2.765067442E-01 -2.191427069E+01  9.977714817E+01  4.750000000E+00  0.00000E+00  9.000E+00
      -5     1     4     4     0   504 -9.649233671E+01  1.560503894E+01 -5.822241344E+02  5.903912207E+02  4.750000000E+00  0.00000E+00  9.000E+00
      21     1     1     2   503   511 -2.014476140E+01 -3.096197318E+00  1.706503938E+02  1.718631861E+02  4.672030912E-06  0.00000E+00  9.000E+00
</event>
<event>
     13  10001  1.00000E+00  2.98225E+01 -1.00000E+00  1.56935E-01
      21    -1     0     0   503   512  0.000000000E+00  0.000000000E+00  7.383236678E+02  7.383236678E+02  0.000000000E+00  0.00000E+00  9.000E+00
      21    -1     0     0   502   503  0.000000000E+00  0.000000000E+00 -1.702623540E+02  1.702623540E+02  0.000000000E+00  0.00000E+00  9.000E+00
       6     2     1     2   502     0 -1.895562586E+02 -1.895279681E+02  4.000764026E+02  5.113683152E+02  1.720000000E+02  0.00000E+00  9.000E+00
      -6     2     1     2     0   504  1.641916824E+02  1.738430283E+02  8.133727029E+01  3.055815089E+02  1.720000000E+02  0.00000E+00  9.000E+00
      24     2     3     3     0     0 -1.380046268E+02 -1.932885192E+02  3.801205891E+02  4.557579791E+02  8.257084574E+01  0.00000E+00  9.000E+00
     -24     2     4     4     0     0  7.129403801E+01  4.273248305E+01 -1.771213783E+01  1.167607072E+02  8.006521067E+01  0.00000E+00  9.000E+00
     -11     1     5     5     0     0 -1.768361709E+01  1.456865974E-01  6.208171219E+01  6.455130151E+01  2.431401974E-06  0.00000E+00  9.000E+00
      12     1     5     5     0     0 -1.203210097E+02 -1.934342058E+02  3.180388769E+02  3.912066775E+02  6.607249480E-06  0.00000E+00  9.000E+00
      13     1     6     6     0     0  6.953564454E+01  5.111272179E+01  1.081593403E+01  8.697528741E+01  2.030061050E-06  0.00000E+00  9.000E+00
     -14     1     6     6     0     0  1.758393462E+00 -8.380238738E+00 -2.852807186E+01  2.978541981E+01  1.390207266E-06  0.00000E+00  9.000E+00
       5     1     3     3   502     0 -5.155163182E+01  3.760551182E+00  1.995581353E+01  5.561033610E+01  4.750000000E+00  0.00000E+00  9.000E+00
      -5     1     4     4     0   504  9.289764441E+01  1.311105452E+02  9.904940813E+01  1.888208017E+02  4.750000000E+00  0.00000E+00  9.000E+00
      21     1     1     2   504   512  2.536457615E+01  1.568493979E+01  8.664764094E+01  9.163619776E+01  1.348699152E-06  0.00000E+00  9.000E+00
</event>
<event>
     13  10001  1.00000E+00  2.89352E+01 -1.00000E+00  1.57900E-01
      21    -1     0     0   502   503  0.000000000E+00  0.000000000E+00  5.078931628E+01  5.078931628E+01  0.000000000E+00  0.00000E+00  9.000E+00
      21    -1     0     0   503   511  0.000000000E+00  0.000000000E+00 -1.317609565E+03  1.317609565E+03  0.000000000E+00  0.00000E+00  9.000E+00
       6     2     1     2   502     0  6.770794104E+01 -3.849441449E+01 -5.141126682E+02  5.476878863E+02  1.720000000E+02  0.00000E+00  9.000E+00
      -6     2     1     2     0   504 -8.541955469E+01  6.137552850E+01 -2.691443012E+02  3.362827838E+02  1.720000000E+02  0.00000E+00  9.000E+00
      24     2     3     3     0     0  1.078266138E+01 -8.230133146E+01 -3.152535614E+02  3.362002028E+02  8.219485035E+01  0.00000E+00  9.000E+00
     -24     2     4     4     0     0 -8.614709809E+01  8.138154454E+01 -1.244182986E+02  1.901015664E+02  8.132904909E+01  0.00000E+00  9.000E+00
     -11     1     5     5     0     0 -4.371865263E+00  1.638916910E+01 -4.463049303E+01  4.774514611E+01  1.846782373E-06  0.00000E+00  9.000E+00
      12     1     5     5     0     0  1.515452665E+01 -9.869050055E+01 -2.706230684E+02  2.884550566E+02  3.814697266E-06  0.00000E+00  9.000E+00
      13     1     6     6     0     0 -7.947572062E+01  9.034988644E+01 -1.303898267E+02  1.774288563E+02  3.814697266E-06  0.00000E+00  9.000E+00
     -14     1     6     6     0     0 -6.671377472E+00 -8.968341900E+00  5.971528082E+00  1.267271011E+01  4.915124924E-07  0.00000E+00  9.000E+00
       5     1     3     3   502     0  5.692527965E+01  4.380691697E+01 -1.988591068E+02  2.114876836E+02  4.750000000E+00  0.00000E+00  9.000E+00
      -5     1     4     4     0   504  7.275433997E-01 -2.000601604E+01 -1.447260025E+02  1.461812174E+02  4.750000000E+00  0.00000E+00  9.000E+00
      21     1     1     2   504   511  1.771161366E+01 -2.288111401E+01 -4.835632790E+02  4.844282108E+02  0.000000000E+00  0.00000E+00  9.000E+00
</event>
<event>
     13  10001  1.00000E+00  8.17465E+00 -1.00000E+00  2.13413E-01
      21    -1     0     0   502   503  0.000000000E+00  0.000000000E+00  8.363450507E+02  8.363450507E+02  0.000000000E+00  0.00000E+00  9.000E+00
       2    -1     0     0   503     0  0.000000000E+00  0.000000000E+00 -8.415858169E+02  8.415858169E+02  0.000000000E+00  0.00000E+00  9.000E+00
       6     2     1     2   502     0  2.240065812E+01  5.018535619E+01  3.079186145E+02  3.569569058E+02  1.720000000E+02  0.00000E+00  9.000E+00
      -6     2     1     2     0   504 -2.021674975E+01 -4.230782611E+01  4.881176758E+02  5.196552074E+02  1.720000000E+02  0.00000E+00  9.000E+00
      24     2     3     3     0     0  1.207586860E+00  1.481851869E+01  4.519837517E+01  9.097862453E+01  7.754463387E+01  0.00000E+00  9.000E+00
     -24     2     4     4     0     0 -2.782249119E+01 -4.551331710E+01  3.124854583E+02  3.437650121E+02  1.329724364E+02  0.00000E+00  9.000E+00
     -11     1     5     5     0     0 -2.185096810E+01 -2.347167153E+01  8.578959014E+00  3.319612491E+01  6.419616708E-07  0.00000E+00  9.000E+00
      12     1     5     5     0     0  2.305855496E+01  3.829019021E+01  3.661941615E+01  5.778249962E+01  1.168007728E-06  0.00000E+00  9.000E+00
      13     1     6     6     0     0  1.503446947E+01 -5.680828861E+01  2.863393985E+02  2.923071468E+02  5.394796609E-06  0.00000E+00  9.000E+00
     -14     1     6     6     0     0 -4.285696066E+01  1.129497151E+01  2.614605981E+01  5.145786531E+01  1.685873940E-06  0.00000E+00  9.000E+00
       5     1     3     3   502     0  2.119307126E+01  3.536683750E+01  2.627202393E+02  2.659782813E+02  4.750000000E+00  0.00000E+00  9.000E+00
      -5     1     4     4     0   504  7.605741441E+00  3.205490988E+00  1.756322175E+02  1.758901953E+02  4.750000000E+00  0.00000E+00  9.000E+00
       2     1     1     2   504     0 -2.183908372E+00 -7.877530080E+00 -8.012770565E+02  8.013187544E+02  0.000000000E+00  0.00000E+00  9.000E+00
</event>
<event>
     13  10001  1.00000E+00  2.61586E+00 -1.00000E+00  3.33667E-01
       2    -1     0     0   502     0  0.000000000E+00  0.000000000E+00  3.913429538E+02  3.913429538E+02  0.000000000E+00  0.00000E+00  9.000E+00
      -2    -1     0     0     0   511  0.000000000E+00  0.000000000E+00 -1.837026463E+02  1.837026463E+02  0.000000000E+00  0.00000E+00  9.000E+00
       6     2     1     2   502     0  1.537214742E+02  7.737883833E+01  1.574501194E+02  2.898142791E+02  1.720000000E+02  0.00000E+00  9.000E+00
      -6     2     1     2     0   512 -1.560396048E+02 -7.859086625E+01  7.801461167E+01  2.572842050E+02  1.720000000E+02  0.00000E+00  9.000E+00
      24     2     3     3     0     0  9.421076542E+01  1.171230667E+02  1.258190519E+02  2.114292353E+02  7.923639747E+01  0.00000E+00  9.000E+00
     -24     2     4     4     0     0 -5.466325721E+01  1.974761930E+01  6.414993719E+00  9.886485842E+01  7.971867992E+01  0.00000E+00  9.000E+00
     -11     1     5     5     0     0  2.631802185E+00  2.840027245E+01 -4.764972444E+00  2.891724088E+01  7.077659420E-07  0.00000E+00  9.000E+00
      12     1     5     5     0     0  9.157896323E+01  8.872279421E+01  1.305840243E+02  1.825119945E+02  2.697398305E-06  0.00000E+00  9.000E+00
      13     1     6     6     0     0 -6.344754405E+01  2.028564380E+01 -2.118217934E+01  6.989837561E+01  1.846782373E-06  0.00000E+00  9.000E+00
     -14     1     6     6     0     0  8.784286838E+00 -5.380245034E-01  2.759717306E+01  2.896648281E+01  4.768371582E-07  0.00000E+00  9.000E+00
       5     1     3     3   502     0  5.951070881E+01 -3.974422833E+01  3.163106758E+01  7.838504376E+01  4.750000000E+00  0.00000E+00  9.000E+00
      -5     1     4     4     0   512 -1.013763476E+02 -9.833848555E+01  7.159961795E+01  1.584193466E+02  4.750000000E+00  0.00000E+00  9.000E+00
      21     1     1     2   512   511  2.318130580E+00  1.212027925E+00 -2.782442363E+01  2.794711597E+01  3.371747881E-07  0.00000E+00  9.000E+00
</event>
<event>
     13  10001  1.00000E+00  1.59322E+01 -1.00000E+00  1.79857E-01
      21    -1     0     0   503   513  0.000000000E+00  0.000000000E+00  1.082731250E+03  1.082731250E+03  0.000000000E+00  0.00000E+00  9.000E+00
      21    -1     0     0   502   503  0.000000000E+00  0.000000000E+00 -3.149104865E+01  3.149104865E+01  0.000000000E+00  0.00000E+00  9.000E+00
       6     2     1     2   502     0 -3.578238986E+01  2.822780076E+01  4.721399210E+02  5.045565311E+02  1.720000000E+02  0.00000E+00  9.000E+00
      -6     2     1     2     0   504  2.189165562E+01 -2.042508751E+01  5.249673839E+02  5.532370043E+02  1.720000000E+02  0.00000E+00  9.000E+00
      24     2     3     3     0     0 -7.128155786E+01  5.803156642E+01  4.011908665E+02  4.196755191E+02  8.200430954E+01  0.00000E+00  9.000E+00
     -24     2     4     4     0     0  6.518060633E+00 -4.879423560E+01  1.535421206E+02  1.803825492E+02  8.086605415E+01  0.00000E+00  9.000E+00
     -11     1     5     5     0     0 -5.001129714E+01  7.396655488E+00  3.028252571E+02  3.070162483E+02  3.814697266E-06  0.00000E+00  9.000E+00
      12     1     5     5     0     0 -2.127026072E+01  5.063491093E+01  9.836560937E+01  1.126592708E+02  2.336015456E-06  0.00000E+00  9.000E+00
      13     1     6     6     0     0  7.165851354E+00  2.228851735E+01  4.289929779E+01  4.887204908E+01  1.261592536E-06  0.00000E+00  9.000E+00
     -14     1     6     6     0     0 -6.477907206E-01 -7.108275295E+01  1.106428229E+02  1.315105001E+02  2.697398305E-06  0.00000E+00  9.000E+00
       5     1     3     3   502     0  3.549916800E+01 -2.980376566E+01  7.094905445E+01  8.488101203E+01  4.750000000E+00  0.00000E+00  9.000E+00
      -5     1     4     4     0   504  1.537359499E+01  2.836914809E+01  3.714252633E+02  3.728544551E+02  4.750000000E+00  0.00000E+00  9.000E+00
      21     1     1     2   504   513  1.389073425E+01 -7.802713247E+00  5.413289625E+01  5.642876295E+01  0.000000000E+00  0.00000E+00  9.000E+00
</event>
<event>
     13  10001  1.00000E+00  2.59517E+01 -1.00000E+00  1.61483E-01
      21    -1     0     0   502   503  0.000000000E+00  0.000000000E+00  2.486133844E+02  2.486133844E+02  0.000000000E+00  0.00000E+00  9.000E+00
      -1    -1     0     0     0   504  0.000000000E+00  0.000000000E+00 -4.176070061E+02  4.176070061E+02  0.000000000E+00  0.00000E+00  9.000E+00
       6     2     1     2   502     0 -4.407248451E+00 -7.312716426E+01 -1.709170152E+02  2.533054126E+02  1.720000000E+02  0.00000E+00  9.000E+00
      -6     2     1     2     0   504  3.029541791E+01  7.131307267E+01  1.632737870E+02  2.494908740E+02  1.720000000E+02  0.00000E+00  9.000E+00
      24     2     3     3     0     0  3.760679410E+01  1.341329454E+01 -9.496032494E+01  1.306415953E+02  8.034659725E+01  0.00000E+00  9.000E+00
     -24     2     4     4     0     0  8.768073303E+01  4.858496829E+01  1.007722727E+02  1.615213173E+02  7.671815232E+01  0.00000E+00  9.000E+00
     -11     1     5     5     0     0  4.493368931E+01  2.175017598E+01 -1.046249785E+02  1.159245130E+02  1.907348633E-06  0.00000E+00  9.000E+00
      12     1     5     5     0     0 -7.326895208E+00 -8.336881440E+00  9.664653530E+00  1.471708237E+01  4.298152060E-07  0.00000E+00  9.000E+00
      13     1     6     6     0     0  6.602312217E+01  3.834642882E+01  2.239952252E+01  7.956908868E+01  7.152557373E-07  0.00000E+00  9.000E+00
     -14     1     6     6     0     0  2.165761086E+01  1.023853947E+01  7.837275017E+01  8.195222857E+01  1.651812370E-06  0.00000E+00  9.000E+00
       5     1     3     3   502     0 -4.201404255E+01 -8.654045879E+01 -7.595669027E+01  1.226638173E+02  4.750000000E+00  0.00000E+00  9.000E+00
      -5     1     4     4     0   504 -5.738531512E+01  2.272810438E+01  6.250151428E+01  8.796955671E+01  4.750000000E+00  0.00000E+00  9.000E+00
      -1     1     1     2     0   503 -2.588816946E+01  1.814091585E+00 -1.613503935E+02  1.634241039E+02  2.697398305E-06  0.00000E+00  9.000E+00
</event>
<event>
     13  10001  1.00000E+00  6.14481E+01 -1.00000E+00  1.36971E-01
      21    -1     0     0   502   503  0.000000000E+00  0.000000000E+00  7.002895284E+02  7.002895284E+02  0.000000000E+00  0.00000E+00  9.000E+00
      21    -1     0     0   503   511  0.000000000E+00  0.000000000E+00 -3.037408022E+02  3.037408022E+02  0.000000000E+00  0.00000E+00  9.000E+00
       6     2     1     2   502     0 -5.093179030E+01 -3.754400866E+02  8.262210781E+00  4.161749272E+02  1.720000000E+02  0.00000E+00  9.000E+00
      -6     2     1     2     0   504  3.069122408E+01  3.174212529E+02  3.813250500E+02  5.260142553E+02  1.720000000E+02  0.00000E+00  9.000E+00
      24     2     3     3     0     0 -3.696820559E+01 -3.492956489E+02  5.137817595E+01  3.636386324E+02  7.886215464E+01  0.00000E+00  9.000E+00
     -24     2     4     4     0     0 -6.604397604E+00  1.911996256E+02  1.378288341E+02  2.491824792E+02  8.058663371E+01  0.00000E+00  9.000E+00
     -11     1     5     5     0     0 -2.357349787E+01 -6.721922847E+01 -1.667817339E+01  7.315938727E+01  2.261837239E-06  0.00000E+00  9.000E+00
      12     1     5     5     0     0 -1.339470772E+01 -2.820764204E+02  6.805634934E+01  2.904792451E+02  7.262967211E-06  0.00000E+00  9.000E+00
      13     1     6     6     0     0  6.668684328E+00  6.378413075E+01  4.508466719E+00  6.429006889E+01  4.539354507E-07  0.00000E+00  9.000E+00
     -14     1     6     6     0     0 -1.327308193E+01  1.274154949E+02  1.333203674E+02  1.848924103E+02  1.907348633E-06  0.00000E+00  9.000E+00
       5     1     3     3   502     0 -1.396358471E+01 -2.614443775E+01 -4.311596517E+01  5.253629485E+01  4.750000000E+00  0.00000E+00  9.000E+00
      -5     1     4     4     0   504  3.729562169E+01  1.262216273E+02  2.434962159E+02  2.768317761E+02  4.750000000E+00  0.00000E+00  9.000E+00
      21     1     1     2   504   511  2.024056622E+01  5.801883371E+01  6.961465430E+00  6.184114800E+01  9.973764736E-07  0.00000E+00  9.000E+00
</event>
<event>
     13  10001  1.00000E+00  2.61304E+01 -1.00000E+00  1.61252E-01
      21    -1     0     0   502   512  0.000000000E+00  0.000000000E+00  1.828596001E+02  1.828596001E+02  0.000000000E+00  0.00000E+00  9.000E+00
      21    -1     0     0   503   504  0.000000000E+00  0.000000000E+00 -6.699763420E+02  6.699763420E+02  0.000000000E+00  0.00000E+00  9.000E+00
       6     2     1     2   502     0  1.434599688E+01 -1.988252124E+02 -4.637137250E+02  5.332463703E+02  1.720000000E+02  0.00000E+00  9.000E+00
      -6     2     1     2     0   504 -4.279847284E+00  2.229389487E+02 -4.563228473E+01  2.852830127E+02  1.720000000E+02  0.00000E+00  9.000E+00
      24     2     3     3     0     0  3.583172796E+01 -6.018877331E+01 -2.958974126E+02  3.144620563E+02  8.015300911E+01  0.00000E+00  9.000E+00
     -24     2     4     4     0     0 -5.272394725E+01  2.056045133E+02 -5.265706132E+01  2.331368388E+02  8.078978262E+01  0.00000E+00  9.000E+00
     -11     1     5     5     0     0 -8.235599864E-01  1.761573809E+01 -2.793843776E+01  3.303859537E+01  1.752011592E-06  0.00000E+00  9.000E+00
      12     1     5     5     0     0  3.665528795E+01 -7.780451141E+01 -2.679589749E+02  2.814234609E+02  5.394796609E-06  0.00000E+00  9.000E+00
      13     1     6     6     0     0  1.246907920E+00  3.067932839E+01 -3.890113002E+01  4.955879222E+01  9.536743164E-07  0.00000E+00  9.000E+00
     -14     1     6     6     0     0 -5.397085517E+01  1.749251849E+02 -1.375593130E+01  1.835780465E+02  2.448873351E-06  0.00000E+00  9.000E+00
       5     1     3     3   502     0 -2.148573108E+01 -1.386364391E+02 -1.678163124E+02  2.187843141E+02  4.750000000E+00  0.00000E+00  9.000E+00
      -5     1     4     4     0   504  4.844409996E+01  1.733443536E+01  7.024776590E+00  5.214617394E+01  4.750000000E+00  0.00000E+00  9.000E+00
      21     1     1     2   503   512 -1.006614960E+01 -2.411373628E+01  2.222926786E+01  3.430655906E+01  2.384185791E-07  0.00000E+00  9.000E+00
</event>
<event>
     13  10001  1.00000E+00  2.37014E+01 -1.00000E+00  1.64600E-01
      21    -1     0     0   503   511  0.000000000E+00  0.000000000E+00  6.704796395E+01  6.704796395E+01  0.000000000E+00  0.00000E+00  9.000E+00
      21    -1     0     0   502   503  0.000000000E+00  0.000000000E+00 -7.754496589E+02  7.754496589E+02  0.000000000E+00  0.00000E+00  9.000E+00
       6     2     1     2   502     0  1.108080525E+02  8.433162948E+01 -3.500345883E+02  4.141237269E+02  1.720000000E+02  0.00000E+00  9.000E+00
      -6     2     1     2     0   504 -8.711064237E+01 -8.476851274E+01 -3.289426272E+02  3.905908559E+02  1.720000000E+02  0.00000E+00  9.000E+00
      24     2     3     3     0     0  1.370143998E+01  3.955458422E+01 -2.529513982E+02  2.696163352E+02  8.340421901E+01  0.00000E+00  9.000E+00
     -24     2     4     4     0     0 -1.263253242E+02 -5.845272206E+01 -2.756220623E+02  3.192048822E+02  8.092853232E+01  0.00000E+00  9.000E+00
     -11     1     5     5     0     0 -1.889012726E+01 -1.335468134E+01 -2.842529192E+01  3.664944259E+01  1.815741803E-06  0.00000E+00  9.000E+00
      12     1     5     5     0     0  3.259156723E+01  5.290926556E+01 -2.245261063E+02  2.329668926E+02  2.697398305E-06  0.00000E+00  9.000E+00
      13     1     6     6     0     0 -1.299943316E+01 -4.505717970E+01 -8.001132078E+01  9.274128616E+01  1.348699152E-06  0.00000E+00  9.000E+00
     -14     1     6     6     0     0 -1.133258910E+02 -1.339554236E+01 -1.956107415E+02  2.264635961E+02  3.814697266E-06  0.00000E+00  9.000E+00
       5     1     3     3   502     0  9.710661256E+01  4.477704526E+01 -9.708319007E+01  1.445073918E+02  4.750000000E+00  0.00000E+00  9.000E+00
      -5     1     4     4     0   504  3.921468181E+01 -2.631579068E+01 -5.332056486E+01  7.138597373E+01  4.750000000E+00  0.00000E+00  9.000E+00
      21     1     1     2   504   511 -2.369741017E+01  4.368832622E-01 -2.942447953E+01  3.778304000E+01  4.768371582E-07  0.00000E+00  9.000E+00
</event>
<event>
     13  10001  1.00000E+00  1.36293E+01 -1.00000E+00  1.86690E-01
       2    -1     0     0   503     0  0.000000000E+00  0.000000000E+00  1.368104907E+03  1.368104907E+03  0.000000000E+00  0.00000E+00  9.000E+00
      21    -1     0     0   502   503  0.000000000E+00  0.000000000E+00 -4.261599084E+01  4.261599084E+01  0.000000000E+00  0.00000E+00  9.000E+00
       6     2     1     2   502     0  7.440665772E+01 -2.893245694E+01  4.750022700E+02  5.114534136E+02  1.720000000E+02  0.00000E+00  9.000E+00
      -6     2     1     2     0   504 -6.378290334E+01  2.039460006E+01  3.261671453E+02  3.747708702E+02  1.720000000E+02  0.00000E+00  9.000E+00
      24     2     3     3     0     0 -1.988526797E+01 -5.053801243E+01  2.786313222E+02  2.924970734E+02  7.049545835E+01  0.00000E+00  9.000E+00
     -24     2     4     4     0     0 -9.860826549E+01  3.399943601E+01  1.755466253E+02  2.195065763E+02  8.054171412E+01  0.00000E+00  9.000E+00
     -11     1     5     5     0     0  5.607978504E+00  1.103510242E+01  1.171886394E+02  1.178405708E+02  3.303624740E-06  0.00000E+00  9.000E+00
      12     1     5     5     0     0 -2.549324647E+01 -6.157311484E+01  1.614426828E+02  1.746565026E+02  2.697398305E-06  0.00000E+00  9.000E+00
      13     1     6     6     0     0 -7.728309937E+01 -1.451962290E+01  1.099331623E+02  1.351621140E+02  3.303624740E-06  0.00000E+00  9.000E+00
     -14     1     6     6     0     0 -2.132516612E+01  4.851905891E+01  6.561346295E+01  8.434446223E+01  0.000000000E+00  0.00000E+00  9.000E+00
       5     1     3     3   502     0  9.429192568E+01  2.160555549E+01  1.963709477E+02  2.189563402E+02  4.750000000E+00  0.00000E+00  9.000E+00
      -5     1     4     4     0   504  3.482536215E+01 -1.360483595E+01  1.506205200E+02  1.552642939E+02  4.750000000E+00  0.00000E+00  9.000E+00
       2     1     1     2   504     0 -1.062375437E+01  8.537856878E+00  5.243195005E+02  5.244966137E+02  7.629394531E-06  0.00000E+00  9.000E+00
</event>
<event>
     13  10001  1.00000E+00  3.87782E+01 -1.00000E+00  1.49026E-01
       1    -1     0     0   511     0  0.000000000E+00  0.000000000E+00  6.979738610E+02  6.979738610E+02  0.000000000E+00  0.00000E+00  9.000E+00
      -1    -1     0     0     0   512  0.000000000E+00  0.000000000E+00 -3.360390027E+02  3.360390027E+02  0.000000000E+00  0.00000E+00  9.000E+00
       6     2     1     2   502     0 -2.697568070E+02 -9.528715768E+01  2.917653377E+02  4.433501884E+02  1.720000000E+02  0.00000E+00  9.000E+00
      -6     2     1     2     0   512  2.335725115E+02  1.092316066E+02 -1.658104092E+02  3.515177859E+02  1.720000000E+02  0.00000E+00  9.000E+00
      24     2     3     3     0     0 -1.099891377E+02 -8.406827439E+01  2.050429563E+02  2.611554975E+02  8.363309609E+01  0.00000E+00  9.000E+00
     -24     2     4     4     0     0  1.571608080E+02  4.535299348E-01 -1.003483926E+02  2.032637589E+02  8.091125104E+01  0.00000E+00  9.000E+00
     -11     1     5     5     0     0 -2.408126362E+01 -4.277314096E+01  1.327182139E+02  1.415046753E+02  2.697398305E-06  0.00000E+00  9.000E+00
      12     1     5     5     0     0 -8.590787407E+01 -4.129513343E+01  7.232474242E+01  1.196508221E+02  1.907348633E-06  0.00000E+00  9.000E+00
      13     1     6     6     0     0  1.360905287E+02  5.953176079E+00 -1.139429966E+02  1.775924514E+02  3.303624740E-06  0.00000E+00  9.000E+00
     -14     1     6     6     0     0  2.107027922E+01 -5.499646144E+00  1.359460397E+01  2.567130755E+01  7.725644944E-07  0.00000E+00  9.000E+00
       5     1     3     3   502     0 -1.597676693E+02 -1.121888329E+01  8.672238135E+01  1.821946909E+02  4.750000000E+00  0.00000E+00  9.000E+00
      -5     1     4     4     0   512  7.641170352E+01  1.087780766E+02 -6.546201658E+01  1.482540270E+02  4.750000000E+00  0.00000E+00  9.000E+00
      21     1     1     2   511   502  3.618429547E+01 -1.394444890E+01  2.359799297E+02  2.391448894E+02  3.814697266E-06  0.00000E+00  9.000E+00
</event>
<event>
     13  10001  1.00000E+00  1.11331E+02 -1.00000E+00  1.24074E-01
      21    -1     0     0   503   504  0.000000000E+00  0.000000000E+00  7.200540293E+02  7.200540293E+02  0.000000000E+00  0.00000E+00  9.000E+00
       1    -1     0     0   502     0  0.000000000E+00  0.000000000E+00 -1.877577778E+02  1.877577778E+02  0.000000000E+00  0.00000E+00  9.000E+00
       6     2     1     2   502     0  1.460427915E+02  1.410131254E+02  2.205164045E+02  3.455787655E+02  1.720000000E+02  0.00000E+00  9.000E+00
      -6     2     1     2     0   504 -5.882832387E+01 -7.181584927E+01  3.830563963E+02  4.300401036E+02  1.720000000E+02  0.00000E+00  9.000E+00
      24     2     3     3     0     0  1.702738966E+01  3.888099169E+01  1.283403182E+02  1.569125522E+02  7.967840508E+01  0.00000E+00  9.000E+00
     -24     2     4     4     0     0 -3.434838574E+01 -1.098397997E+01  7.531246030E+01  1.153518827E+02  7.958411112E+01  0.00000E+00  9.000E+00
     -11     1     5     5     0     0  1.526333632E+01  5.274070288E+01  4.116039136E+01  6.862017920E+01  1.719260824E-06  0.00000E+00  9.000E+00
      12     1     5     5     0     0  1.764053339E+00 -1.385971119E+01  8.717992687E+01  8.829237299E+01  9.536743164E-07  0.00000E+00  9.000E+00
      13     1     6     6     0     0 -3.920956165E+01  2.492815661E+01  6.030389463E+01  7.612727779E+01  6.743495762E-07  0.00000E+00  9.000E+00
     -14     1     6     6     0     0  4.861175911E+00 -3.591213658E+01  1.500856567E+01  3.922460489E+01  1.227334755E-06  0.00000E+00  9.000E+00
       5     1     3     3   502     0  1.290154019E+02  1.021321338E+02  9.217608628E+01  1.886662133E+02  4.750000000E+00  0.00000E+00  9.000E+00
      -5     1     4     4     0   504 -2.447993812E+01 -6.083186929E+01  3.077439360E+02  3.146882209E+02  4.750000000E+00  0.00000E+00  9.000E+00
       1     1     1     2   503     0 -8.721446766E+01 -6.919727617E+01 -7.127654930E+01  1.321929381E+02  2.132480600E-06  0.00000E+00  9.000E+00
</event>
<event>
     13  10001  1.00000E+00  1.75739E+02 -1.00000E+00  1.15735E-01
       2    -1     0     0   502     0  0.000000000E+00  0.000000000E+00  6.825114782E+02  6.825114782E+02  0.000000000E+00  0.00000E+00  9.000E+00
      21    -1     0     0   503   504  0.000000000E+00  0.000000000E+00 -1.988317049E+02  1.988317049E+02  0.000000000E+00  0.00000E+00  9.000E+00
       6     2     1     2   502     0  5.504830883E+01  2.206027425E+01 -2.561847217E+01  1.837315382E+02  1.720000000E+02  0.00000E+00  9.000E+00
      -6     2     1     2     0   504 -5.242241472E+01 -1.977801307E+02  1.736893132E+02  3.187743201E+02  1.720000000E+02  0.00000E+00  9.000E+00
      24     2     3     3     0     0 -1.546352578E+01  9.122245727E+00 -6.174687862E+01  1.033130350E+02  8.086142581E+01  0.00000E+00  9.000E+00
     -24     2     4     4     0     0 -1.627813187E+01 -3.948901567E+01  1.559400024E+01  9.210456751E+01  8.009818086E+01  0.00000E+00  9.000E+00
     -11     1     5     5     0     0  9.415337312E+00  4.103880970E+01 -3.555495433E+01  5.510886731E+01  1.168007728E-06  0.00000E+00  9.000E+00
      12     1     5     5     0     0 -2.487886309E+01 -3.191656397E+01 -2.619192429E+01  4.820416769E+01  7.539457465E-07  0.00000E+00  9.000E+00
      13     1     6     6     0     0  1.913357080E+00  2.343064756E+01  1.228336485E+01  2.652427628E+01  7.725644944E-07  0.00000E+00  9.000E+00
     -14     1     6     6     0     0 -1.819148895E+01 -6.291966323E+01  3.310635391E+00  6.558029123E+01  9.794042543E-07  0.00000E+00  9.000E+00
       5     1     3     3   502     0  7.051183461E+01  1.293802852E+01  3.612840645E+01  8.041850319E+01  4.750000000E+00  0.00000E+00  9.000E+00
      -5     1     4     4     0   504 -3.614428285E+01 -1.582911150E+02  1.580953130E+02  2.266697526E+02  4.750000000E+00  0.00000E+00  9.000E+00
       2     1     1     2   503     0 -2.625894112E+00  1.757198564E+02  3.356089323E+02  3.788373248E+02  6.607249480E-06  0.00000E+00  9.000E+00
</event>
<event>
     13  10001  1.00000E+00  6.25237E+00 -1.00000E+00  2.30914E-01
      21    -1     0     0   502   503  0.000000000E+00  0.000000000E+00  5.787423649E+02  5.787423649E+02  0.000000000E+00  0.00000E+00  9.000E+00
      21    -1     0     0   511   504  0.000000000E+00  0.000000000E+00 -9.484869597E+01  9.484869597E+01  0.000000000E+00  0.00000E+00  9.000E+00
       6     2     1     2   502     0  7.537801673E+01 -8.036203701E+01  3.944247607E+02  4.441787864E+02  1.720000000E+02  0.00000E+00  9.000E+00
      -6     2     1     2     0   504 -7.930485787E+01  7.549664586E+01  9.049765394E+01  2.230758377E+02  1.720000000E+02  0.00000E+00  9.000E+00
      24     2     3     3     0     0 -2.806887231E+01 -6.464115577E+01  1.404936624E+02  1.694935663E+02  6.342916692E+01  0.00000E+00  9.000E+00
     -24     2     4     4     0     0 -1.470747714E+00 -6.172788466E+00  7.435767256E+01  1.090095995E+02  7.945919015E+01  0.00000E+00  9.000E+00
     -11     1     5     5     0     0 -2.556120426E+01 -2.971787541E+01  1.253674852E+02  1.313527070E+02  1.907348633E-06  0.00000E+00  9.000E+00
      12     1     5     5     0     0 -2.507668050E+00 -3.492328035E+01  1.512617718E+01  3.814085927E+01  7.539457465E-07  0.00000E+00  9.000E+00
      13     1     6     6     0     0 -2.902150967E+01 -1.508855691E+01  7.303129405E+01  8.002176256E+01  9.536743164E-07  0.00000E+00  9.000E+00
     -14     1     6     6     0     0  2.755076195E+01  8.915768439E+00  1.326378512E+00  2.898783695E+01  1.114702476E-06  0.00000E+00  9.000E+00
       5     1     3     3   502     0  1.034468890E+02 -1.572088124E+01  2.539310983E+02  2.746852201E+02  4.750000000E+00  0.00000E+00  9.000E+00
      -5     1     4     4     0   504 -7.783411015E+01  8.166943433E+01  1.613998138E+01  1.140662382E+02  4.750000000E+00  0.00000E+00  9.000E+00
      21     1     1     2   511   503  3.926841140E+00  4.865391148E+00 -1.028745770E+00  6.336436713E+00  1.569934749E-07  0.00000E+00  9.000E+00
</event>
<event>
     13  10001  1.00000E+00  1.73954E+02 -1.00000E+00  1.15909E-01
      21    -1     0     0   503   512  0.000000000E+00  0.000000000E+00  1.999436034E+02  1.999436034E+02  0.000000000E+00  0.00000E+00  9.000E+00
      21    -1     0     0   502   503  0.000000000E+00  0.000000000E+00 -9.403709977E+02  9.403709977E+02  0.000000000E+00  0.00000E+00  9.000E+00
       6     2     1     2   502     0 -2.498068014E+01 -4.054067615E+01  5.932027121E+01  1.880704001E+02  1.720000000E+02  0.00000E+00  9.000E+00
      -6     2     1     2     0   504 -1.455428051E+02  7.491501949E+01 -7.250344408E+02  7.629245759E+02  1.720000000E+02  0.00000E+00  9.000E+00
      24     2     3     3     0     0  4.324639034E+01 -4.191463788E+01  7.052251876E+01  1.187532033E+02  7.417419022E+01  0.00000E+00  9.000E+00
     -24     2     4     4     0     0 -2.022805418E+01 -1.110607931E+01 -3.463609665E+02  3.548564703E+02  7.365240125E+01  0.00000E+00  9.000E+00
     -11     1     5     5     0     0 -1.972607380E-01  1.469104409E+01  3.720879306E+01  4.000449937E+01  2.236564522E-06  0.00000E+00  9.000E+00
      12     1     5     5     0     0  4.344365108E+01 -5.660568198E+01  3.331372570E+01  7.874870393E+01  1.784161275E-06  0.00000E+00  9.000E+00
      13     1     6     6     0     0 -4.139166071E+01  1.062628982E+00 -2.960934256E+02  2.989744394E+02  5.394796609E-06  0.00000E+00  9.000E+00
     -14     1     6     6     0     0  2.116360652E+01 -1.216870829E+01 -5.026754093E+01  5.588203087E+01  0.000000000E+00  0.00000E+00  9.000E+00
       5     1     3     3   502     0 -6.822707048E+01  1.373961734E+00 -1.120224755E+01  6.931719676E+01  4.750000000E+00  0.00000E+00  9.000E+00
      -5     1     4     4     0   504 -1.253147509E+02  8.602109880E+01 -3.786734742E+02  4.080681056E+02  4.750000000E+00  0.00000E+00  9.000E+00
      21     1     1     2   504   512  1.705234852E+02 -3.437434334E+01 -7.471322471E+01  1.893196251E+02  2.861022949E-06  0.00000E+00  9.000E+00
</event>
<event>
     13  10001  1.00000E+00  9.76125E+01 -1.00000E+00  1.26709E-01
      21    -1     0     0   503   504  0.000000000E+00  0.000000000E+00  6.711754464E+02  6.711754464E+02  0.000000000E+00  0.00000E+00  9.000E+00
      21    -1     0     0   502   511  0.000000000E+00  0.000000000E+00 -3.054640846E+02  3.054640846E+02  0.000000000E+00  0.00000E+00  9.000E+00
       6     2     1     2   502     0  2.248521232E+01  1.433921453E+02  4.464632214E+02  4.999802998E+02  1.720000000E+02  0.00000E+00  9.000E+00
      -6     2     1     2     0   504  6.752166362E+01 -1.056170906E+02  1.264870007E+02  2.475825241E+02  1.720000000E+02  0.00000E+00  9.000E+00
      24     2     3     3     0     0 -3.658367022E+01  1.047193508E+02  3.773860100E+02  4.010917689E+02  7.842129249E+01  0.00000E+00  9.000E+00
     -24     2     4     4     0     0  4.667114911E+01 -5.844953085E+01  1.538165377E+02  1.890249564E+02  8.047585376E+01  0.00000E+00  9.000E+00
     -11     1     5     5     0     0 -5.995404658E+01  7.004367389E+01  2.272454619E+02  2.452368323E+02  2.697398305E-06  0.00000E+00  9.000E+00
      12     1     5     5     0     0  2.337037637E+01  3.467567692E+01  1.501405481E+02  1.558549366E+02  1.907348633E-06  0.00000E+00  9.000E+00
      13     1     6     6     0     0 -2.098755579E+01 -8.760012621E+00  5.405482235E+01  5.864417396E+01  1.507891493E-06  0.00000E+00  9.000E+00
     -14     1     6     6     0     0  6.765870489E+01 -4.968951823E+01  9.976171535E+01  1.303807824E+02  1.348699152E-06  0.00000E+00  9.000E+00
       5     1     3     3   502     0  5.906888254E+01  3.867279444E+01  6.907721135E+01  9.888853090E+01  4.750000000E+00  0.00000E+00  9.000E+00
      -5     1     4     4     0   504  2.085051452E+01 -4.716755980E+01 -2.732953696E+01  5.855756777E+01  4.750000000E+00  0.00000E+00  9.000E+00
      21     1     1     2   503   511 -9.000687595E+01 -3.777505461E+01 -2.072388603E+02  2.290767070E+02  0.000000000E+00  0.00000E+00  9.000E+00
</event>
<event>
     13  10001  1.00000E+00  4.03081E+01 -1.00000E+00  1.47929E-01
      21    -1     0     0   502   503  0.000000000E+00  0.000000000E+00  2.467547465E+02  2.467547465E+02  0.000000000E+00  0.00000E+00  9.000E+00
       2    -1     0     0   503     0  0.000000000E+00  0.000000000E+00 -9.643125983E+02  9.643125983E+02  0.000000000E+00  0.00000E+00  9.000E+00
       6     2     1     2   502     0 -6.135464042E+00  1.370562800E+01  6.729096477E+01  1.853039722E+02  1.720000000E+02  0.00000E+00  9.000E+00
      -6     2     1     2     0   504 -3.123150772E+01 -2.882040096E+01  5.456342586E+01  1.853838991E+02  1.720000000E+02  0.00000E+00  9.000E+00
      24     2     3     3     0     0  4.382316845E+01  5.339460100E+01  2.653887539E+01  1.094463764E+02  8.063959264E+01  0.00000E+00  9.000E+00
     -24     2     4     4     0     0 -8.397430350E+01 -3.974864529E+01  5.440618110E+01  1.313115747E+02  7.517352371E+01  0.00000E+00  9.000E+00
     -11     1     5     5     0     0 -1.387110642E+01 -8.227260925E+00 -8.284313737E+00  1.813078238E+01  3.576278687E-07  0.00000E+00  9.000E+00
      12     1     5     5     0     0  5.769427486E+01  6.162186193E+01  3.482318913E+01  9.131559407E+01  4.768371582E-07  0.00000E+00  9.000E+00
      13     1     6     6     0     0 -5.377973173E+01 -6.104843647E+01  2.859068071E+01  8.623571281E+01  1.719260824E-06  0.00000E+00  9.000E+00
     -14     1     6     6     0     0 -3.019457177E+01  2.129979118E+01  2.581550038E+01  4.507586193E+01  1.118282261E-06  0.00000E+00  9.000E+00
       5     1     3     3   502     0 -4.995863249E+01 -3.968897300E+01  4.075208938E+01  7.585759571E+01  4.750000000E+00  0.00000E+00  9.000E+00
      -5     1     4     4     0   504  5.274279578E+01  1.092824432E+01  1.572447643E-01  5.407232431E+01  4.750000000E+00  0.00000E+00  9.000E+00
       2     1     1     2   504     0  3.736697176E+01  1.511477297E+01 -8.394122424E+02  8.403794736E+02  1.078959322E-05  0.00000E+00  9.000E+00
</event>
<event>
     13  10001  1.00000E+00  4.41123E+01 -1.00000E+00  1.45436E-01
      21    -1     0     0   503   504  0.000000000E+00  0.000000000E+00  4.995848985E+02  4.995848985E+02  0.000000000E+00  0.00000E+00  9.000E+00
      21    -1     0     0   511   503  0.000000000E+00  0.000000000E+00 -1.649274134E+02  1.649274134E+02  0.000000000E+00  0.00000E+00  9.000E+00
       6     2     1     2   502     0 -1.565178086E+01 -1.321022382E+02  2.994073744E+02  3.700334517E+02  1.720000000E+02  0.00000E+00  9.000E+00
      -6     2     1     2     0   504 -2.732373932E+01  1.420520194E+02  7.312247789E+01  2.363392894E+02  1.720000000E+02  0.00000E+00  9.000E+00
      24     2     3     3     0     0  2.994853371E-01  3.007227428E+00  9.278734577E+01  1.225998055E+02  8.007551221E+01  0.00000E+00  9.000E+00
     -24     2     4     4     0     0 -7.707977200E+01  1.335096849E+02  5.905218926E+01  1.837163877E+02  8.061279566E+01  0.00000E+00  9.000E+00
     -11     1     5     5     0     0  1.875032728E+01 -3.351728801E+01  3.628053997E+01  5.283238542E+01  8.259061849E-07  0.00000E+00  9.000E+00
      12     1     5     5     0     0 -1.845084195E+01  3.652451544E+01  5.650680580E+01  6.976742004E+01  1.168007728E-06  0.00000E+00  9.000E+00
      13     1     6     6     0     0  2.709115761E+00  6.747436463E+01  3.975871754E+01  7.836379783E+01  1.168007728E-06  0.00000E+00  9.000E+00
     -14     1     6     6     0     0 -7.978888776E+01  6.603532031E+01  1.929347172E+01  1.053525899E+02  1.702649219E-06  0.00000E+00  9.000E+00
       5     1     3     3   502     0 -1.595126619E+01 -1.351094656E+02  2.066200286E+02  2.474336463E+02  4.750000000E+00  0.00000E+00  9.000E+00
      -5     1     4     4     0   504  4.975603268E+01  8.542334502E+00  1.407028863E+01  5.262290175E+01  4.750000000E+00  0.00000E+00  9.000E+00
      21     1     1     2   511   502  4.297552018E+01 -9.949781261E+00 -3.787236717E+01  5.813957066E+01  8.259061849E-07  0.00000E+00  9.000E+00
</event>
<event>
     13  10001  1.00000E+00  1.83795E+01 -1.00000E+00  1.74042E-01
      21    -1     0     0   503   504  0.000000000E+00  0.000000000E+00  2.013631037E+02  2.013631037E+02  0.000000000E+00  0.00000E+00  9.000E+00
      21    -1     0     0   502   512  0.000000000E+00  0.000000000E+00 -2.872362135E+02  2.872362135E+02  0.000000000E+00  0.00000E+00  9.000E+00
       6     2     1     2   502     0 -1.320805285E+01 -2.777553023E+00  1.143607846E+02  2.069892667E+02  1.720000000E+02  0.00000E+00  9.000E+00
      -6     2     1     2     0   504  1.746593842E+01  2.065702348E+01 -1.562641474E+02  2.339535325E+02  1.720000000E+02  0.00000E+00  9.000E+00
      24     2     3     3     0     0 -7.292714096E+01  1.620217327E+01  8.069691770E+01  1.356981878E+02  7.950551762E+01  0.00000E+00  9.000E+00
     -24     2     4     4     0     0 -5.021150365E+01  2.419074039E+01 -5.540708486E+01  1.123499434E+02  8.028809199E+01  0.00000E+00  9.000E+00
     -11     1     5     5     0     0 -1.663577680E+00 -2.601585990E+01  2.287436716E+01  3.468182708E+01  1.348699152E-06  0.00000E+00  9.000E+00
      12     1     5     5     0     0 -7.126356328E+01  4.221803317E+01  5.782255054E+01  1.010163607E+02  1.348699152E-06  0.00000E+00  9.000E+00
      13     1     6     6     0     0 -2.172035130E+00 -1.230112601E+00  1.957943445E+01  1.973791192E+01  7.152557373E-07  0.00000E+00  9.000E+00
     -14     1     6     6     0     0 -4.803946852E+01  2.542085299E+01 -7.498651931E+01  9.261203151E+01  2.336015456E-06  0.00000E+00  9.000E+00
       5     1     3     3   502     0  5.971908811E+01 -1.897972629E+01  3.366386688E+01  7.129107888E+01  4.750000000E+00  0.00000E+00  9.000E+00
      -5     1     4     4     0   504  6.767744208E+01 -3.533716909E+00 -1.008570625E+02  1.216035891E+02  4.750000000E+00  0.00000E+00  9.000E+00
      21     1     1     2   503   512 -4.257885576E+00 -1.787947046E+01 -4.396974707E+01  4.765651803E+01  6.743495762E-07  0.00000E+00  9.000E+00
</event>
<event>
     13  10001  1.00000E+00  1.26822E+01 -1.00000E+00  1.90027E-01
       4    -1     0     0   503     0  0.000000000E+00  0.000000000E+00  3.346334594E+02  3.346334594E+02  0.000000000E+00  0.00000E+00  9.000E+00
      21    -1     0     0   502   503  0.000000000E+00  0.000000000E+00 -1.281508699E+02  1.281508699E+02  0.000000000E+00  0.00000E+00  9.000E+00
       6     2     1     2   502     0 -5.655470357E+01  3.579240820E+01  1.368048090E+02  2.297369947E+02  1.720000000E+02  0.00000E+00  9.000E+00
      -6     2     1     2     0   504  4.387370817E+01 -3.562096535E+01  2.043292961E+01  1.821956642E+02  1.720000000E+02  0.00000E+00  9.000E+00
      24     2     3     3     0     0 -4.235352024E+01  8.312076642E+01  1.285260026E+02  1.794105778E+02  8.346460094E+01  0.00000E+00  9.000E+00
     -24     2     4     4     0     0  4.660651598E+01  3.929307481E+01  3.511548824E+01  1.056599099E+02  7.883404084E+01  0.00000E+00  9.000E+00
     -11     1     5     5     0     0 -5.400590022E+01  7.598870220E+01  6.309740941E+01  1.125708808E+02  2.431401974E-06  0.00000E+00  9.000E+00
      12     1     5     5     0     0  1.165237998E+01  7.132064224E+00  6.542859320E+01  6.683969709E+01  2.132480600E-06  0.00000E+00  9.000E+00
      13     1     6     6     0     0  1.171881267E+01  5.185713842E+01  4.223799466E+01  6.790096883E+01  4.768371582E-07  0.00000E+00  9.000E+00
     -14     1     6     6     0     0  3.488770331E+01 -1.256406361E+01 -7.122506418E+00  3.775894112E+01  8.678567278E-07  0.00000E+00  9.000E+00
       5     1     3     3   502     0 -1.420118333E+01 -4.732835822E+01  8.278806373E+00  5.032641687E+01  4.750000000E+00  0.00000E+00  9.000E+00
      -5     1     4     4     0   504 -2.732807809E+00 -7.491404016E+01 -1.468255863E+01  7.653575425E+01  4.750000000E+00  0.00000E+00  9.000E+00
       4     1     1     2   504     0  1.268099540E+01 -1.714428507E-01  4.924485093E+01  5.085167037E+01  0.000000000E+00  0.00000E+00  9.000E+00
</event>
<event>
     13  10001  1.00000E+00  2.18398E+01 -1.00000E+00  1.67520E-01
      21    -1     0     0   502   503  0.000000000E+00  0.000000000E+00  8.263612658E+01  8.263612658E+01  0.000000000E+00  0.00000E+00  9.000E+00
      21    -1     0     0   503   511  0.000000000E+00  0.000000000E+00 -5.900850726E+02  5.900850726E+02  0.000000000E+00  0.00000E+00  9.000E+00
       6     2     1     2   502     0 -2.379207831E+01  2.824639879E+00 -3.916851252E+02  4.284568577E+02  1.720000000E+02  0.00000E+00  9.000E+00
      -6     2     1     2     0   504  2.979768298E+01  1.817320813E+01 -6.183307909E+01  1.860792763E+02  1.720000000E+02  0.00000E+00  9.000E+00
      24     2     3     3     0     0 -3.456486217E+01  6.342329962E+01 -2.862263788E+02  3.062588212E+02  8.155783828E+01  0.00000E+00  9.000E+00
     -24     2     4     4     0     0 -2.350772164E+01 -1.303740172E+01  1.458618411E+01  8.770227383E+01  8.219699050E+01  0.00000E+00  9.000E+00
     -11     1     5     5     0     0  2.230315778E+01  3.470894986E+01 -7.456259329E+01  8.521574012E+01  1.348699152E-06  0.00000E+00  9.000E+00
      12     1     5     5     0     0 -5.686801995E+01  2.871434977E+01 -2.116637855E+02  2.210430810E+02  4.672030912E-06  0.00000E+00  9.000E+00
      13     1     6     6     0     0 -2.646403085E+01 -4.106078957E+01  2.820181050E+01  5.640634259E+01  1.066240300E-06  0.00000E+00  9.000E+00
     -14     1     6     6     0     0  2.956309203E+00  2.802338784E+01 -1.361562639E+01  3.129593124E+01  3.371747881E-07  0.00000E+00  9.000E+00
       5     1     3     3   502     0  1.077278386E+01 -6.059865974E+01 -1.054587464E+02  1.221980365E+02  4.750000000E+00  0.00000E+00  9.000E+00
      -5     1     4     4     0   504  5.330540462E+01  3.121060985E+01 -7.641926320E+01  9.837700248E+01  4.750000000E+00  0.00000E+00  9.000E+00
      21     1     1     2   504   511 -6.005604664E+00 -2.099784801E+01 -5.393074169E+01  5.818506516E+01  0.000000000E+00  0.00000E+00  9.000E+00
</event>
<event>
     13  10001  1.00000E+00  4.55578E+00 -1.00000E+00  2.61346E-01
       1    -1     0     0   502     0  0.000000000E+00  0.000000000E+00  6.537855835E+01  6.537855835E+01  0.000000000E+00  0.00000E+00  9.000E+00
      -1    -1     0     0     0   513  0.000000000E+00  0.000000000E+00 -7.783567447E+02  7.783567447E+02  0.000000000E+00  0.00000E+00  9.000E+00
       6     2     1     2   502     0  3.021949832E+01  1.290633977E+02 -2.478740445E+02  3.295392550E+02  1.720000000E+02  0.00000E+00  9.000E+00
      -6     2     1     2     0   512 -3.115958863E+01 -1.246056631E+02 -4.539540266E+02  5.021511222E+02  1.720000000E+02  0.00000E+00  9.000E+00
      24     2     3     3     0     0  3.475771218E-01 -2.290808289E+00 -7.490233491E+01  1.102494151E+02  8.086535192E+01  0.00000E+00  9.000E+00
     -24     2     4     4     0     0 -1.421166011E+01 -1.500964239E+02 -4.310280039E+02  4.636131386E+02  8.013173117E+01  0.00000E+00  9.000E+00
     -11     1     5     5     0     0 -3.987394322E+01 -4.574703393E+00 -3.140618880E+01  5.096280951E+01  1.118282261E-06  0.00000E+00  9.000E+00
      12     1     5     5     0     0  4.022152034E+01  2.283895104E+00 -4.349614611E+01  5.928660558E+01  1.430511475E-06  0.00000E+00  9.000E+00
      13     1     6     6     0     0  2.612037422E+01 -1.109416482E+02 -3.057258571E+02  3.262799763E+02  3.814697266E-06  0.00000E+00  9.000E+00
     -14     1     6     6     0     0 -4.033203433E+01 -3.915477576E+01 -1.253021468E+02  1.373331622E+02  3.568322551E-06  0.00000E+00  9.000E+00
       5     1     3     3   502     0  2.987192120E+01  1.313542059E+02 -1.729717095E+02  2.192898399E+02  4.750000000E+00  0.00000E+00  9.000E+00
      -5     1     4     4     0   512 -1.694792852E+01  2.549076078E+01 -2.292602271E+01  3.853798365E+01  4.750000000E+00  0.00000E+00  9.000E+00
      21     1     1     2   512   513  9.400903152E-01 -4.457734517E+00 -1.115011530E+01  1.204492582E+01  1.685873940E-07  0.00000E+00  9.000E+00
</event>
<event>
     13  10001  1.00000E+00  3.89121E+02 -1.00000E+00  1.03650E-01
       2    -1     0     0   503     0  0.000000000E+00  0.000000000E+00  4.401759848E+02  4.401759848E+02  0.000000000E+00  0.00000E+00  9.000E+00
      21    -1     0     0   502   503  0.000000000E+00  0.000000000E+00 -6.456842679E+02  6.456842679E+02  0.000000000E+00  0.00000E+00  9.000E+00
       6     2     1     2   502     0  7.675045463E+01  2.587084053E+02 -1.777615219E+02  3.660653356E+02  1.720000000E+02  0.00000E+00  9.000E+00
      -6     2     1     2     0   504  9.226012554E+01  9.179197345E+01 -2.000985202E+02  2.942127036E+02  1.720000000E+02  0.00000E+00  9.000E+00
      24     2     3     3     0     0  2.877892075E+01  2.446263723E+02 -1.800650786E+02  3.157916785E+02  8.142888564E+01  0.00000E+00  9.000E+00
     -24     2     4     4     0     0  8.651111228E+01  2.686662550E+01 -4.957446360E+01  1.301139343E+02  7.915819819E+01  0.00000E+00  9.000E+00
     -11     1     5     5     0     0  5.506299886E+01  1.628734478E+02 -1.030872680E+02  2.004661534E+02  4.264961200E-06  0.00000E+00  9.000E+00
      12     1     5     5     0     0 -2.628407811E+01  8.175292452E+01 -7.697781062E+01  1.153255252E+02  2.132480600E-06  0.00000E+00  9.000E+00
      13     1     6     6     0     0  5.460700861E+01  9.618982055E+00  1.376068016E+01  5.712973415E+01  9.078709013E-07  0.00000E+00  9.000E+00
     -14     1     6     6     0     0  3.190410367E+01  1.724764344E+01 -6.333514375E+01  7.298420014E+01  1.348699152E-06  0.00000E+00  9.000E+00
       5     1     3     3   502     0  4.797153388E+01  1.408203298E+01  2.303556710E+00  5.027365701E+01  4.750000000E+00  0.00000E+00  9.000E+00
      -5     1     4     4     0   504  5.749013253E+00  6.492534795E+01 -1.505240566E+02  1.640987693E+02  4.750000000E+00  0.00000E+00  9.000E+00
       2     1     1     2   504     0 -1.690105802E+02 -3.505003787E+02  1.723517589E+02  4.255822135E+02  6.031565972E-06  0.00000E+00  9.000E+00
</event>
<event>
     13  10001  1.00000E+00  6.20182E+01 -1.00000E+00  1.36749E-01
      21    -1     0     0   503   504  0.000000000E+00  0.000000000E+00  3.326518693E+02  3.326518693E+02  0.000000000E+00  0.00000E+00  9.000E+00
      21    -1     0     0   511   503  0.000000000E+00  0.000000000E+00 -1.772271417E+02  1.772271417E+02  0.000000000E+00  0.00000E+00  9.000E+00
       6     2     1     2   502     0 -8.298013725E+01  1.945032495E+01  1.703622408E+02  2.566540695E+02  1.720000000E+02  0.00000E+00  9.000E+00
      -6     2     1     2     0   504  6.146545721E+01  3.871647367E+01 -3.074150108E+01  1.892247543E+02  1.720000000E+02  0.00000E+00  9.000E+00
      24     2     3     3     0     0 -1.481983149E+01 -4.926341162E+01  7.777914220E+01  1.226331849E+02  7.964164705E+01  0.00000E+00  9.000E+00
     -24     2     4     4     0     0  1.538638839E+01 -3.781180748E+00 -8.040794500E+01  1.091082806E+02  7.202875117E+01  0.00000E+00  9.000E+00
     -11     1     5     5     0     0  1.681019123E+01 -8.480972817E+00  6.741132699E+01  6.999140258E+01  1.348699152E-06  0.00000E+00  9.000E+00
      12     1     5     5     0     0 -3.163002272E+01 -4.078243881E+01  1.036781521E+01  5.264178231E+01  5.196212463E-07  0.00000E+00  9.000E+00
      13     1     6     6     0     0  1.250756271E+01 -1.619421938E+01  6.346061844E+00  2.142345367E+01  2.384185791E-07  0.00000E+00  9.000E+00
     -14     1     6     6     0     0  2.878825684E+00  1.241303863E+01 -8.675400685E+01  8.768482691E+01  2.336015456E-06  0.00000E+00  9.000E+00
       5     1     3     3   502     0 -6.816030576E+01  6.871373657E+01  9.258309860E+01  1.340208846E+02  4.750000000E+00  0.00000E+00  9.000E+00
      -5     1     4     4     0   504  4.607906882E+01  4.249765442E+01  4.966644393E+01  8.011647375E+01  4.750000000E+00  0.00000E+00  9.000E+00
      21     1     1     2   511   502  2.151468003E+01 -5.816679862E+01  1.580398795E+01  6.400018714E+01  7.348554138E-07  0.00000E+00  9.000E+00
</event>
<event>
     13  10001  1.00000E+00  4.63666E+01 -1.00000E+00  1.44095E-01
      21    -1     0     0   502   503  0.000000000E+00  0.000000000E+00  5.289585068E+02  5.289585068E+02  0.000000000E+00  0.00000E+00  9.000E+00
      21    -1     0     0   512   504  0.000000000E+00  0.000000000E+00 -1.193839160E+02  1.193839160E+02  0.000000000E+00  0.00000E+00  9.000E+00
       6     2     1     2   502     0 -1.084294943E+02 -3.413537720E+01  8.527500535E+01  2.231098513E+02  1.720000000E+02  0.00000E+00  9.000E+00
      -6     2     1     2     0   504  1.356039984E+02 -3.433328072E+00  3.037963839E+02  3.745350117E+02  1.720000000E+02  0.00000E+00  9.000E+00
      24     2     3     3     0     0  9.630698695E-01  1.596184682E+01  5.644522071E+01  9.929473132E+01  8.011037804E+01  0.00000E+00  9.000E+00
     -24     2     4     4     0     0  1.376774488E+02 -1.206612813E+00  3.199135023E+02  3.574592551E+02  8.047318965E+01  0.00000E+00  9.000E+00
     -11     1     5     5     0     0  2.093551209E+01 -6.263126491E+00 -1.177121994E+01  2.482104025E+01  3.769728732E-07  0.00000E+00  9.000E+00
      12     1     5     5     0     0 -1.997244222E+01  2.222497331E+01  6.821644065E+01  7.447369108E+01  1.348699152E-06  0.00000E+00  9.000E+00
      13     1     6     6     0     0  1.129989118E+01  1.068807983E+01  2.693980549E+00  1.578544020E+01  1.576990671E-07  0.00000E+00  9.000E+00
     -14     1     6     6     0     0  1.263775577E+02 -1.189469264E+01  3.172195218E+02  3.416738149E+02  6.607249480E-06  0.00000E+00  9.000E+00
       5     1     3     3   502     0 -1.093925642E+02 -5.009722401E+01  2.882978463E+01  1.238151200E+02  4.750000000E+00  0.00000E+00  9.000E+00
      -5     1     4     4     0   504 -2.073450426E+00 -2.226715260E+00 -1.611711843E+01  1.707575661E+01  4.750000000E+00  0.00000E+00  9.000E+00
      21     1     1     2   512   503 -2.717450409E+01  3.756870527E+01  2.050320156E+01  5.069755973E+01  1.011524364E-06  0.00000E+00  9.000E+00
</event>
<event>
     13  10001  1.00000E+00  1.70571E+01 -1.00000E+00  1.77031E-01
      21    -1     0     0   511   503  0.000000000E+00  0.000000000E+00  7.120481655E+02  7.120481655E+02  0.000000000E+00  0.00000E+00  9.000E+00
      21    -1     0     0   503   504  0.000000000E+00  0.000000000E+00 -6.715228689E+01  6.715228689E+01  0.000000000E+00  0.00000E+00  9.000E+00
       6     2     1     2   502     0  2.144989435E+01 -6.366209627E+01  2.436234103E+02  3.056948258E+02  1.720000000E+02  0.00000E+00  9.000E+00
      -6     2     1     2     0   504 -2.301012426E+01  4.667649395E+01  1.899009582E+02  2.614470020E+02  1.720000000E+02  0.00000E+00  9.000E+00
      24     2     3     3     0     0 -5.968164825E+00 -9.684324840E+01  2.251207411E+02  2.586028934E+02  8.235213826E+01  0.00000E+00  9.000E+00
     -24     2     4     4     0     0 -4.528312302E+00 -2.008551699E+01  2.850541620E+01  8.574888883E+01  7.820728596E+01  0.00000E+00  9.000E+00
     -11     1     5     5     0     0  3.816312847E+01 -4.689336083E+01  1.133871729E+02  1.284992710E+02  1.907348633E-06  0.00000E+00  9.000E+00
      12     1     5     5     0     0 -4.413129330E+01 -4.994988757E+01  1.117335682E+02  1.301036225E+02  2.336015456E-06  0.00000E+00  9.000E+00
      13     1     6     6     0     0  3.638494297E+01 -3.584030479E+00  1.589073334E+01  3.986508191E+01  1.272806913E-06  0.00000E+00  9.000E+00
     -14     1     6     6     0     0 -4.091325527E+01 -1.650148651E+01  1.261468286E+01  4.588380692E+01  1.155776944E-06  0.00000E+00  9.000E+00
       5     1     3     3   502     0  2.741805918E+01  3.318115213E+01  1.850266924E+01  4.709193237E+01  4.750000000E+00  0.00000E+00  9.000E+00
      -5     1     4     4     0   504 -1.848181196E+01  6.676201094E+01  1.613955420E+02  1.756981131E+02  4.750000000E+00  0.00000E+00  9.000E+00
      21     1     1     2   511   502  1.560229909E+00  1.698560231E+01  2.113715101E+02  2.120586247E+02  3.814697266E-06  0.00000E+00  9.000E+00
</event>
<event>
     13  10001  1.00000E+00  9.73889E+01 -1.00000E+00  1.26756E-01
      21    -1     0     0   512   503  0.000000000E+00  0.000000000E+00  1.264891413E+03  1.264891413E+03  0.000000000E+00  0.00000E+00  9.000E+00
      21    -1     0     0   503   504  0.000000000E+00  0.000000000E+00 -1.441690864E+02  1.441690864E+02  0.000000000E+00  0.00000E+00  9.000E+00
       6     2     1     2   502     0  7.595481593E+01 -7.347822830E+00  4.621033858E-02  1.881678153E+02  1.720000000E+02  0.00000E+00  9.000E+00
      -6     2     1     2     0   504 -1.712925638E+02  2.723044256E+01  2.677779367E+02  3.624522904E+02  1.720000000E+02  0.00000E+00  9.000E+00
      24     2     3     3     0     0  4.974660028E+01  3.957366474E+01  5.015485046E+01  1.145340263E+02  8.100453674E+01  0.00000E+00  9.000E+00
     -24     2     4     4     0     0 -1.255126279E+02  7.848820445E+01  1.477856898E+02  2.240909428E+02  8.038857217E+01  0.00000E+00  9.000E+00
     -11     1     5     5     0     0  5.153645549E+01  2.233869773E+00  5.662136793E+01  7.659618610E+01  1.507891493E-06  0.00000E+00  9.000E+00
      12     1     5     5     0     0 -1.789855211E+00  3.733979497E+01 -6.466517470E+00  3.793784019E+01  1.130918620E-06  0.00000E+00  9.000E+00
      13     1     6     6     0     0 -4.494658103E+01  7.156622867E+01  5.414218345E+01  1.003658122E+02  6.743495762E-07  0.00000E+00  9.000E+00
     -14     1     6     6     0     0 -8.056604691E+01  6.921975777E+00  9.364350632E+01  1.237251306E+02  1.348699152E-06  0.00000E+00  9.000E+00
       5     1     3     3   502     0  2.620821564E+01 -4.692148757E+01 -5.010864012E+01  7.363378897E+01  4.750000000E+00  0.00000E+00  9.000E+00
      -5     1     4     4     0   504 -4.577993591E+01 -5.125776189E+01  1.199922469E+02  1.383613476E+02  4.750000000E+00  0.00000E+00  9.000E+00
      21     1     1     2   512   502  9.533774792E+01 -1.988261973E+01  8.528981795E+02  8.584403936E+02  2.157918644E-05  0.00000E+00  9.000E+00
</event>
<event>
     13  10001  1.00000E+00  6.35029E+01 -1.00000E+00  1.36186E-01
      21    -1     0     0   502   503  0.000000000E+00  0.000000000E+00  3.446626760E+02  3.446626760E+02  0.000000000E+00  0.00000E+00  9.000E+00
      21    -1     0     0   503   511  0.000000000E+00  0.000000000E+00 -4.449785909E+02  4.449785909E+02  0.000000000E+00  0.00000E+00  9.000E+00
       6     2     1     2   502     0 -3.622489229E+01 -4.102059555E+01  1.998426320E+02  2.692879679E+02  1.720000000E+02  0.00000E+00  9.000E+00
      -6     2     1     2     0   504  8.452993995E+01  8.224250626E+01  5.047186613E+00  2.086111566E+02  1.720000000E+02  0.00000E+00  9.000E+00
      24     2     3     3     0     0 -6.497181775E+01  3.755269441E+00  6.635601318E+01  1.255086101E+02  8.434365170E+01  0.00000E+00  9.000E+00
     -24     2     4     4     0     0  9.272097726E+01  5.954490747E+01  5.971932229E+01  1.486621867E+02  7.994543551E+01  0.00000E+00  9.000E+00
     -11     1     5     5     0     0  1.429479021E+01 -1.925489385E+01  1.412068277E+01  2.782958222E+01  7.152557373E-07  0.00000E+00  9.000E+00
      12     1     5     5     0     0 -7.926660796E+01  2.301016330E+01  5.223533041E+01  9.767902792E+01  2.336015456E-06  0.00000E+00  9.000E+00
      13     1     6     6     0     0  1.181512305E+01 -1.458095758E+01 -7.241722008E+00  2.011576482E+01  6.364034565E-07  0.00000E+00  9.000E+00
     -14     1     6     6     0     0  8.090585422E+01  7.412586505E+01  6.696104429E+01  1.285464218E+02  3.162979880E-06  0.00000E+00  9.000E+00
       5     1     3     3   502     0  2.874692547E+01 -4.477586499E+01  1.334866188E+02  1.437793577E+02  4.750000000E+00  0.00000E+00  9.000E+00
      -5     1     4     4     0   504 -8.191037308E+00  2.269759879E+01 -5.467213567E+01  5.994896998E+01  4.750000000E+00  0.00000E+00  9.000E+00
      21     1     1     2   504   511 -4.830504767E+01 -4.122191071E+01 -3.052057335E+02  3.117421424E+02  3.814697266E-06  0.00000E+00  9.000E+00
</event>
<event>
     13  10001  1.00000E+00  3.98422E+01 -1.00000E+00  1.48257E-01
      21    -1     0     0   502   512  0.000000000E+00  0.000000000E+00  3.362966558E+02  3.362966558E+02  0.000000000E+00  0.00000E+00  9.000E+00
      21    -1     0     0   503   504  0.000000000E+00  0.000000000E+00 -6.813028379E+02  6.813028379E+02  0.000000000E+00  0.00000E+00  9.000E+00
       6     2     1     2   502     0  1.644265713E+02 -4.349977387E+01 -5.794504330E+02  6.279133157E+02  1.720000000E+02  0.00000E+00  9.000E+00
      -6     2     1     2     0   504 -2.032139320E+02  5.260688769E+01  2.020492027E+02  3.383360269E+02  1.720000000E+02  0.00000E+00  9.000E+00
      24     2     3     3     0     0  7.384578759E+01 -1.156003432E+01 -1.388685910E+02  1.769588309E+02  8.026896986E+01  0.00000E+00  9.000E+00
     -24     2     4     4     0     0 -1.483926586E+02  1.394534837E+01  2.156133919E+02  2.697310972E+02  6.364649390E+01  0.00000E+00  9.000E+00
     -11     1     5     5     0     0  4.662512953E+01  3.256066862E+01 -8.431673305E+01  1.017025630E+02  1.651812370E-06  0.00000E+00  9.000E+00
      12     1     5     5     0     0  2.722065806E+01 -4.412070294E+01 -5.455185797E+01  7.525626792E+01  1.168007728E-06  0.00000E+00  9.000E+00
      13     1     6     6     0     0 -1.008024444E+02 -1.758764233E+01  1.607408843E+02  1.905468180E+02  3.303624740E-06  0.00000E+00  9.000E+00
     -14     1     6     6     0     0 -4.759021420E+01  3.153299070E+01  5.487250756E+01  7.918427922E+01  2.132480600E-06  0.00000E+00  9.000E+00
       5     1     3     3   502     0  9.058078368E+01 -3.193973955E+01 -4.405818420E+02  4.509544848E+02  4.750000000E+00  0.00000E+00  9.000E+00
      -5     1     4     4     0   504 -5.482127343E+01  3.866153932E+01 -1.356418924E+01  6.860492966E+01  4.750000000E+00  0.00000E+00  9.000E+00
      21     1     1     2   503   512  3.878736071E+01 -9.107113824E+00  3.239504822E+01  5.135015114E+01  8.259061849E-07  0.00000E+00  9.000E+00
</event>
</LesHouchesEvents>
 #Random number generator exit values:     54217137     218991273             0
